 vasp.4.6.34 5Dec07 complex 
 executed on             LinuxIFC date 2011.10.27  09:51:39
 running on   16 nodes
 distr:  one band on    8 nodes,    2 groups


--------------------------------------------------------------------------------------------------------


 INCAR:
 POTCAR:   PAW_PBE Pb 08Apr2002                   
 POTCAR:   PAW_PBE Si 05Jan2001                   
 POTCAR:   PAW_PBE Pb 08Apr2002                   
   VRHFIN =Pb:                                                                  
   LEXCH  = PE                                                                  
   EATOM  =    96.9868 eV,    7.1283 Ry                                         
                                                                                
   TITEL  = PAW_PBE Pb 08Apr2002                                                
   LULTRA =        F    use ultrasoft PP ?                                      
   IUNSCR =        1    unscreen: 0-lin 1-nonlin 2-no                           
   RPACOR =    2.200    partial core radius                                     
   POMASS =  207.200; ZVAL   =    4.000    mass and valenz                      
   RCORE  =    3.100    outmost cutoff radius                                   
   RWIGS  =    3.260; RWIGS  =    1.725    wigner-seitz radius (au A)           
   ENMAX  =   97.973; ENMIN  =   73.480 eV                                      
   ICORE  =        3    local potential                                         
   LCOR   =        T    correct aug charges                                     
   LPAW   =        T    paw PP                                                  
   EAUG   =  234.873                                                            
   DEXC   =    -.129                                                            
   RMAX   =    4.658    core radius for proj-oper                               
   RAUG   =    1.300    factor for augmentation sphere                          
   RDEP   =    3.202    radius for radial grids                                 
   QCUT   =   -2.683; QGAM   =    5.367    optimization parameters              
                                                                                
   Description                                                                  
     l     E      TYP  RCUT    TYP  RCUT                                        
     0   .000     23  3.100                                                     
     0   .000     23  3.100                                                     
     1   .000     23  3.100                                                     
     1  -.400     23  3.100                                                     
     2  -.100     23  3.100                                                     
     3  -.100     23  3.100                                                     
  local pseudopotential read in
  partial core-charges read in
  atomic valenz-charges read in
  non local Contribution for L=           0  read in
    real space projection operators read in
  non local Contribution for L=           0  read in
    real space projection operators read in
  non local Contribution for L=           1  read in
    real space projection operators read in
  non local Contribution for L=           1  read in
    real space projection operators read in
  non local Contribution for L=           2  read in
    real space projection operators read in
    PAW grid and wavefunctions read in
 
   number of l-projection  operators is LMAX  =           5
   number of lm-projection operators is LMMAX =          13
 
 POTCAR:   PAW_PBE Si 05Jan2001                   
   VRHFIN =Si: s2p2                                                             
   LEXCH  = PE                                                                  
   EATOM  =   103.0669 eV,    7.5752 Ry                                         
                                                                                
   TITEL  = PAW_PBE Si 05Jan2001                                                
   LULTRA =        F    use ultrasoft PP ?                                      
   IUNSCR =        1    unscreen: 0-lin 1-nonlin 2-no                           
   RPACOR =    1.500    partial core radius                                     
   POMASS =   28.085; ZVAL   =    4.000    mass and valenz                      
   RCORE  =    1.900    outmost cutoff radius                                   
   RWIGS  =    2.480; RWIGS  =    1.312    wigner-seitz radius (au A)           
   ENMAX  =  245.345; ENMIN  =  184.009 eV                                      
   ICORE  =        2    local potential                                         
   LCOR   =        T    correct aug charges                                     
   LPAW   =        T    paw PP                                                  
   EAUG   =  322.069                                                            
   DEXC   =    -.007                                                            
   RMAX   =    2.944    core radius for proj-oper                               
   RAUG   =    1.300    factor for augmentation sphere                          
   RDEP   =    1.993    radius for radial grids                                 
   QCUT   =   -4.246; QGAM   =    8.493    optimization parameters              
                                                                                
   Description                                                                  
     l     E      TYP  RCUT    TYP  RCUT                                        
     0   .000     23  1.900                                                     
     0   .000     23  1.900                                                     
     1   .000     23  1.900                                                     
     1   .000     23  1.900                                                     
     2   .000      7  1.900                                                     
  local pseudopotential read in
  partial core-charges read in
  atomic valenz-charges read in
  non local Contribution for L=           0  read in
    real space projection operators read in
  non local Contribution for L=           0  read in
    real space projection operators read in
  non local Contribution for L=           1  read in
    real space projection operators read in
  non local Contribution for L=           1  read in
    real space projection operators read in
    PAW grid and wavefunctions read in
 
   number of l-projection  operators is LMAX  =           4
   number of lm-projection operators is LMMAX =           8
 

 ----------------------------------------------------------------------------- 
|                                                                             |
|  ADVICE TO THIS USER RUNNING 'VASP/VAMP'   (HEAR YOUR MASTER'S VOICE ...):  |
|                                                                             |
|      You have a (more or less) 'large supercell' and for larger cells       |
|      it might be more efficient to use real space projection operators      |
|      So try LREAL= Auto  in the INCAR   file.                               |
|      Mind: If you want to do an extremely accurate calculations keep the    |
|      reciprocal projection scheme          (i.e. LREAL=.FALSE.)             |
|                                                                             |
 ----------------------------------------------------------------------------- 

 PAW_PBE Pb 08Apr2002                   :
 energy of atom  1       EATOM=  -96.9868
 kinetic energy error for atom=    0.0002 (will be added to EATOM!!)
 PAW_PBE Si 05Jan2001                   :
 energy of atom  2       EATOM= -103.0669
 kinetic energy error for atom=    0.0056 (will be added to EATOM!!)
 
 EXHCAR: internal setup
 exchange correlation table for  LEXCH =        8
   RHO(1)=    0.500       N(1)  =     2000
   RHO(2)=  100.500       N(2)  =     4000
 
 POSCAR:  Si(103)                                
  positions in direct lattice
  velocities in cartesian coordinates
 


--------------------------------------------------------------------------------------------------------


 ion  position               nearest neighbor table
   1  0.781  0.683  0.069-   2 3.10   6 3.13   5 3.13  17 3.33  13 3.55   6 3.61   4 3.89
   2  0.521  0.825  0.068-  13 2.83   1 3.10   3 3.35   6 3.37   4 3.44   4 3.58
   3  0.179  0.576  0.070-  14 2.79   2 3.35   5 3.43   5 3.58   6 3.64   4 3.68
   4  0.413  0.260  0.070-  15 2.79   5 3.33   2 3.44   2 3.58   3 3.68   1 3.89
   5  0.071  0.034  0.067-  16 2.80   1 3.13   6 3.31   4 3.33   3 3.43   3 3.58
   6  0.817  0.238  0.070-  17 2.96   1 3.13   5 3.31   2 3.37   1 3.61   3 3.64
   7  0.183  0.548  0.517-  68 2.79   9 3.33  11 3.47  11 3.54  10 3.74  12 3.89
   8  0.783  0.579  0.517-  69 3.01  12 3.11   9 3.28  11 3.33  12 3.61  10 3.69
   9  0.526  0.768  0.520-  70 2.79  12 3.15   8 3.28   7 3.33  10 3.44  10 3.56
  10  0.421  0.225  0.517-  71 2.79  11 3.36   9 3.44   9 3.56   8 3.69   7 3.74
  11  0.076  0.989  0.520-  72 2.81  12 3.13   8 3.33  10 3.36   7 3.47   7 3.54
  12  0.814  0.133  0.518-   8 3.11  11 3.13   9 3.15  69 3.24   8 3.61   7 3.89
  13  0.598  0.798  0.000-  21 2.37  18 2.37  20 2.37   2 2.83   1 3.55
  14  0.200  0.596  0.001-  19 2.37  22 2.37  21 2.38   3 2.79
  15  0.399  0.200  0.001-  18 2.37  22 2.37  21 2.38   4 2.79
  16  0.003  0.998  1.000-  19 2.36  22 2.37  20 2.38   5 2.80
  17  0.801  0.399  0.002-  19 2.38  20 2.39  18 2.39   6 2.96   1 3.33
  18  0.600  0.463  0.981-  15 2.37  13 2.37  25 2.38  17 2.39
  19  0.001  0.662  0.981-  16 2.36  14 2.37  27 2.37  17 2.38
  20  0.800  0.065  0.981-  13 2.37  16 2.38  26 2.38  17 2.39
  21  0.398  0.866  0.981-  23 2.37  13 2.37  14 2.38  15 2.38
  22  0.202  0.267  0.980-  24 2.36  16 2.37  14 2.37  15 2.37
  23  0.399  0.866  0.922-  31 2.37  21 2.37  32 2.37  29 2.37
  24  0.201  0.267  0.921-  22 2.36  29 2.37  31 2.37  30 2.37
  25  0.601  0.466  0.922-  28 2.37  32 2.37  29 2.38  18 2.38
  26  0.800  0.065  0.922-  28 2.37  30 2.37  32 2.37  20 2.38
  27  0.999  0.664  0.922-  30 2.37  28 2.37  19 2.37  31 2.37
  28  0.800  0.732  0.902-  25 2.37  27 2.37  26 2.37  33 2.37
  29  0.401  0.534  0.902-  24 2.37  36 2.37  23 2.37  25 2.38
  30  1.000  0.331  0.902-  27 2.37  34 2.37  24 2.37  26 2.37
  31  0.199  0.932  0.902-  37 2.37  24 2.37  23 2.37  27 2.37
  32  0.600  0.132  0.902-  25 2.37  23 2.37  26 2.37  35 2.38
  33  0.800  0.733  0.843-  39 2.37  40 2.37  42 2.37  28 2.37
  34  0.000  0.333  0.843-  39 2.37  38 2.37  42 2.37  30 2.37
  35  0.600  0.133  0.843-  41 2.37  40 2.37  39 2.37  32 2.38
  36  0.400  0.533  0.843-  40 2.37  41 2.37  38 2.37  29 2.37
  37  0.200  0.933  0.843-  31 2.37  38 2.37  41 2.37  42 2.37
  38  0.200  0.600  0.823-  34 2.37  37 2.37  36 2.37  44 2.37
  39  0.800  0.400  0.823-  34 2.37  33 2.37  35 2.37  47 2.37
  40  0.600  0.800  0.823-  43 2.37  36 2.37  35 2.37  33 2.37
  41  0.400  0.200  0.823-  35 2.37  36 2.37  37 2.37  45 2.37
  42  0.000  0.000  0.823-  34 2.37  37 2.37  33 2.37  46 2.37
  43  0.601  0.800  0.764-  40 2.37  51 2.37  50 2.37  48 2.37
  44  0.200  0.599  0.764-  52 2.37  38 2.37  51 2.37  49 2.37
  45  0.400  0.200  0.764-  51 2.37  41 2.37  48 2.37  52 2.37
  46  1.000  0.999  0.764-  52 2.37  42 2.37  50 2.37  49 2.37
  47  0.800  0.399  0.764-  48 2.37  49 2.37  39 2.37  50 2.37
  48  0.600  0.466  0.744-  55 2.37  47 2.37  43 2.37  45 2.37
  49  1.000  0.666  0.744-  47 2.37  46 2.37  57 2.37  44 2.37
  50  0.800  0.066  0.744-  43 2.37  46 2.37  56 2.37  47 2.37
  51  0.401  0.866  0.744-  53 2.36  43 2.37  45 2.37  44 2.37
  52  0.199  0.265  0.744-  54 2.37  46 2.37  44 2.37  45 2.37
  53  0.401  0.867  0.686-  51 2.36  61 2.37  59 2.37  62 2.37
  54  0.199  0.265  0.685-  59 2.36  52 2.37  61 2.37  60 2.37
  55  0.601  0.467  0.685-  62 2.37  48 2.37  59 2.37  58 2.37
  56  0.800  0.066  0.685-  60 2.37  62 2.37  50 2.37  58 2.37
  57  0.000  0.667  0.685-  60 2.37  61 2.37  49 2.37  58 2.37
  58  0.800  0.733  0.665-  56 2.37  55 2.37  57 2.37  63 2.39
  59  0.399  0.532  0.666-  66 2.36  54 2.36  53 2.37  55 2.37
  60  0.999  0.333  0.665-  56 2.37  57 2.37  54 2.37  64 2.38
  61  0.202  0.933  0.666-  53 2.37  67 2.37  54 2.37  57 2.37
  62  0.601  0.135  0.665-  55 2.37  56 2.37  65 2.37  53 2.37
  63  0.800  0.733  0.605-  72 2.38  70 2.38  58 2.39  69 2.39
  64  0.001  0.335  0.606-  68 2.37  72 2.37  60 2.38  69 2.39
  65  0.599  0.136  0.606-  70 2.36  71 2.37  62 2.37  69 2.38
  66  0.398  0.531  0.607-  59 2.36  70 2.37  71 2.37  68 2.37
  67  0.203  0.932  0.607-  61 2.37  72 2.37  68 2.38  71 2.38
  68  0.201  0.599  0.586-  64 2.37  66 2.37  67 2.38   7 2.79
  69  0.800  0.397  0.585-  65 2.38  64 2.39  63 2.39   8 3.01  12 3.24
  70  0.596  0.800  0.587-  65 2.36  66 2.37  63 2.38   9 2.79
  71  0.401  0.202  0.586-  65 2.37  66 2.37  67 2.38  10 2.79
  72  0.003  0.001  0.587-  67 2.37  64 2.37  63 2.38  11 2.81
 
 RWIGS
   1.72500000000000        1.31200000000000       6.953166219485749E-310
  2.088522697216097E-317  4.061857556629459E-307  2.088387817294782E-317
  6.916911580058941E-310  2.088252937373467E-317  4.061857412040441E-307
  2.088118057452153E-317  4.468342343393139E-310  2.087983177530838E-317
  4.061857557305154E-307  2.087848297609523E-317  2.176538804034332E+059
  2.087703536375292E-317  4.061857358779683E-307  2.087539012515227E-317
  4.061857358779683E-307  2.087212435123326E-317  4.061857358779683E-307
  2.087077061136365E-317  4.468342304449649E-310  2.086942181215051E-317
  4.468342346707479E-310  2.086781609880152E-317  0.000000000000000E+000
  0.000000000000000E+000  0.000000000000000E+000  0.000000000000000E+000
  0.000000000000000E+000  0.000000000000000E+000  0.000000000000000E+000
  0.000000000000000E+000  0.000000000000000E+000  0.000000000000000E+000
  0.000000000000000E+000  0.000000000000000E+000  0.000000000000000E+000
  0.000000000000000E+000  0.000000000000000E+000  0.000000000000000E+000
  0.000000000000000E+000  0.000000000000000E+000  0.000000000000000E+000
  0.000000000000000E+000  0.000000000000000E+000  0.000000000000000E+000
  0.000000000000000E+000  0.000000000000000E+000  0.000000000000000E+000
  0.000000000000000E+000  0.000000000000000E+000  0.000000000000000E+000
  0.000000000000000E+000  0.000000000000000E+000  0.000000000000000E+000
  0.000000000000000E+000  0.000000000000000E+000  0.000000000000000E+000
  0.000000000000000E+000  0.000000000000000E+000  0.000000000000000E+000
  0.000000000000000E+000  0.000000000000000E+000  0.000000000000000E+000
  0.000000000000000E+000  0.000000000000000E+000  0.000000000000000E+000
  0.000000000000000E+000  0.000000000000000E+000  0.000000000000000E+000
 RWIGS_MIN
   1.57440006256104     
 
  Warning from LATTYP: Monoclinic adjustement (A1->A3, A2->A1, A3->A2)!
  Warning from LATTYP: Got some problem with cell dimensions!
  Tried to take original basis but could not verify dimensions!
  LATTYP: Found a simple monoclinic cell.
 ALAT       =    10.2241128559
 B/A-ratio  =     3.9264824798
 C/A-ratio  =     1.8898202167
 COS(beta)  =    -0.9449113114
  
  Lattice vectors:
  
 A1 = (  -9.6608675864,  -3.3466582090,   0.0000000000)
 A2 = (   0.0000000000,   0.0000000000, -40.1448000000)
 A3 = (  19.3217351729,   0.0000710162,   0.0000000000)
 Subroutine PRICEL returns:
 Original cell was already a primitive cell.
 

Analysis of symmetry for initial positions (statically):

 Routine SETGRP: Setting up the symmetry group for a 
 simple monoclinic supercell.


 Subroutine GETGRP returns: Found  1 space group operations
 (whereof  1 operations were pure point group operations)
 out of a pool of  4 trial point group operations.


The static configuration has the point symmetry C_1 .

Analysis of symmetry for dynamics (positions and initial velocities):

 Subroutine DYNSYM returns: Found  1 space group operations
 (whereof  1 operations were pure point group operations)
 out of a pool of  1 trial space group operations
 (whereof  1 operations were pure point group operations)
 and found also     1 'primitive' translations


The dynamic configuration has the point symmetry C_1 .

Analysis of constrained symmetry for selective dynamics:

 Subroutine DYNSYM returns: Found  1 space group operations
 (whereof  1 operations were pure point group operations)
 out of a pool of  1 trial space group operations
 (whereof  1 operations were pure point group operations)
 and found also     1 'primitive' translations


The constrained configuration has the point symmetry C_1 .
 
 
 KPOINTS: Automatic generatic                     

Automatic generation of k-mesh.
 
 Subroutine IBZKPT returns following result:
 ===========================================
 
 Found     18 irreducible k-points:
 
 Following reciprocal coordinates:
            Coordinates               Weight
  0.000000  0.000000  0.000000      1.000000
  0.200000  0.000000  0.000000      2.000000
  0.400000  0.000000  0.000000      2.000000
  0.000000  0.142857  0.000000      2.000000
  0.200000  0.142857  0.000000      2.000000
  0.400000  0.142857  0.000000      2.000000
 -0.400000  0.142857  0.000000      2.000000
 -0.200000  0.142857  0.000000      2.000000
  0.000000  0.285714  0.000000      2.000000
  0.200000  0.285714  0.000000      2.000000
  0.400000  0.285714  0.000000      2.000000
 -0.400000  0.285714  0.000000      2.000000
 -0.200000  0.285714  0.000000      2.000000
  0.000000  0.428571  0.000000      2.000000
  0.200000  0.428571  0.000000      2.000000
  0.400000  0.428571  0.000000      2.000000
 -0.400000  0.428571  0.000000      2.000000
 -0.200000  0.428571  0.000000      2.000000
 
 Following cartesian coordinates:
            Coordinates               Weight
  0.000000  0.000000  0.000000      1.000000
  0.020777  0.000000  0.000000      2.000000
  0.041554  0.000000  0.000000      2.000000
  0.007420  0.021421  0.000000      2.000000
  0.028197  0.021421  0.000000      2.000000
  0.048974  0.021421  0.000000      2.000000
 -0.034134  0.021421  0.000000      2.000000
 -0.013357  0.021421  0.000000      2.000000
  0.014841  0.042841  0.000000      2.000000
  0.035618  0.042841  0.000000      2.000000
  0.056395  0.042841  0.000000      2.000000
 -0.026713  0.042841  0.000000      2.000000
 -0.005936  0.042841  0.000000      2.000000
  0.022261  0.064262  0.000000      2.000000
  0.043038  0.064262  0.000000      2.000000
  0.063815  0.064262  0.000000      2.000000
 -0.019293  0.064262  0.000000      2.000000
  0.001484  0.064262  0.000000      2.000000
 


--------------------------------------------------------------------------------------------------------




 Dimension of arrays:
   k-Points           NKPTS =     18   number of bands    NBANDS=    182
   number of dos      NEDOS =    301   number of ions     NIONS =     72
   non local maximal  LDIM  =      5   non local SUM 2l+1 LMDIM =     13
   total plane-waves  NPLWV = 408240
   max r-space proj   IRMAX =      1   max aug-charges    IRDMAX=   3373
   dimension x,y,z NGX =    54 NGY =   36 NGZ =  210
   dimension x,y,z NGXF=    60 NGYF=   40 NGZF=  240
   support grid    NGXF=    60 NGYF=   40 NGZF=  240
   ions per type =              12  60
 NGX,Y,Z   is equivalent  to a cutoff of   8.78,  8.94,  8.70 a.u.
 NGXF,Y,Z  is equivalent  to a cutoff of   9.76,  9.94,  9.94 a.u.


 I would recommend the setting:
   dimension x,y,z NGX =    39 NGY =   26 NGZ =  154
 SYSTEM =  PbSiR7                                  
 POSCAR =   Si(103)                                

 Startparameter for this run:
   NWRITE =      2    write-flag & timer
   PREC   = m         medium, high low
   ISTART =      0    job   : 0-new  1-cont  2-samecut
   ICHARG =      1    charge: 1-file 2-atom 10-const
   ISPIN  =      1    spin polarized calculation?
   LNONCOLLINEAR =      F non collinear calculations
   LSORBIT =      F    spin-orbit coupling
   INIWAV =      1    electr: 0-lowe 1-rand  2-diag
   LASPH  =      F    aspherical Exc in radial PAW
   METAGGA=      F    non-selfconsistent MetaGGA calc.

 Electronic Relaxation 1
   ENCUT  =  245.3 eV  18.03 Ry    4.25 a.u.  13.06  8.55 51.27*2*pi/ulx,y,z
   ENINI  =  245.3     initial cutoff
   ENAUG  =  322.1 eV  augmentation charge cutoff
   NELM   =     60;   NELMIN=  2; NELMDL= -5     # of ELM steps 
   EDIFF  = 0.1E-03   stopping-criterion for ELM
   LREAL  =      F    real-space projection
   LCOMPAT=      F    compatible to vasp.4.4
   LREAL_COMPAT= F    compatible to vasp.4.5.1-3
   GGA_COMPAT  = T    GGA compatible to vasp.4.4-vasp.4.6
   LMAXPAW     = -100 max onsite density
   LMAXMIX     =    2 max onsite mixed and CHGCAR
   VOSKOWN=      0    Vosko Wilk Nusair interpolation
   ROPT   =    0.00000   0.00000
 Ionic relaxation
   EDIFFG = -.1E-01   stopping-criterion for IOM
   NSW    =      0    number of steps for IOM
   NBLOCK =      1;   KBLOCK =      1    inner block; outer block 
   IBRION =     -1    ionic relax: 0-MD 1-quasi-New 2-CG
   NFREE  =      1    steps in history (QN), initial steepest desc. (CG)
   ISIF   =      2    stress and relaxation
   IWAVPR =     10    prediction:  0-non 1-charg 2-wave 3-comb
   ISYM   =      2    0-nonsym 1-usesym 2-fastsym
   LCORR  =      T    Harris-Foulkes like correction to forces

   POTIM  =   0.50    time-step for ionic-motion
   TEIN   =    0.0    initial temperature
   TEBEG  =    0.0;   TEEND  =   0.0 temperature during run
   SMASS  =  -3.00    Nose mass-parameter (am)
   estimated Nose-frequenzy (Omega)   =  0.10E-29 period in steps =****** mass=  -0.239E-26a.u.
   NPACO  =    256;   APACO  = 16.0  distance and # of slots for P.C.
   PSTRESS=    0.0 pullay stress

  Mass of Ions in am
   POMASS = 207.20 28.09
  Ionic Valenz
   ZVAL   =   4.00  4.00
  Atomic Wigner-Seitz radii
   RWIGS  =   1.73  1.31
   NELECT =     288.0000    total number of electrons
   NUPDOWN=      -1.0000    fix difference up-down

 DOS related values:
   EMIN   =  10.00;   EMAX   =-10.00  energy-range for DOS
   ISMEAR =     0;   SIGMA  =   0.00  broadening in eV -4-tet -1-fermi 0-gaus

 Electronic relaxation 2 (details)
   IALGO  =     38    algorithm
   LDIAG  =      T    sub-space diagonalisation
   IMIX   =      4    mixing-type and parameters
     AMIX     =   0.40;   BMIX     =  1.00
     AMIX_MAG =   1.60;   BMIX_MAG =  1.00
     AMIN     =   0.10
     WC   =   100.;   INIMIX=   1;  MIXPRE=   1

 Intra band minimization:
   WEIMIN = 0.0000     energy-eigenvalue tresh-hold
   EBREAK =  0.14E-06  absolut break condition
   DEPER  =   0.30     relativ break condition  

   TIME   =   0.10     timestep for ELM

  volume/ion in A,a.u.               =      36.05       243.30
  Fermi-wavevector in a.u.,eV,Ry     =   0.786644  8.419406  0.618809

 Second variation
   LSECVAR=     F    do a second variation
 
 Write flags
   LWAVE  =      F    write WAVECAR
   LCHARG =      T    write CHGCAR
   LVTOT  =      T    write LOCPOT, local potential
   LELF   =      F    write electronic localiz. function (ELF)
   LORBIT =      0    0 simple, 1 ext, 2 COOP (PROOUT)


 Dipole corrections
   IDIPOL =      3    1-x, 2-y, 3-z
   LDIPOL =      T    correct potential

   EFIELD =  0.1000000 eV/A    external electric field



--------------------------------------------------------------------------------------------------------


 Static calculation
 charge density will be updated during run
 non-spin polarized calculation
 Variant of blocked Davidson
 Davidson routine will perform the subspace rotation
 performe sub-space diagonalisation
    after iterative eigenvector-optimisation
 modified Broyden-mixing scheme, WC =      100.0
 initial mixing is a Kerker type mixing with AMIX =  0.4000 and BMIX =      1.0000
 Hartree-type preconditioning will be used
 using additional bands           38
 reciprocal scheme for non local part
 use partial core corrections
 calculate Harris-corrections to forces 
   (improved forces if not selfconsistent)
 use gradient corrections 
 use of overlap-Matrix (Vanderbilt PP)
 Gauss-broadening in eV      SIGMA  =   0.00


--------------------------------------------------------------------------------------------------------


  energy-cutoff  :      245.34
  volume of cell :     2595.87
      direct lattice vectors                 reciprocal lattice vectors
     9.660867586 -3.346587193  0.000000000     0.103510372  0.000000000  0.000000000
     0.000000000  6.693245402  0.000000000     0.051754637  0.149404353  0.000000000
     0.000000000  0.000000000 40.144800000     0.000000000  0.000000000  0.024909826

  length of vectors
    10.224089610  6.693245402 40.144800000     0.103510372  0.158114526  0.024909826


 
 k-points in units of 2pi/SCALE and weight: Automatic generatic                     
   0.00000000  0.00000000  0.00000000       0.029
   0.02077702  0.00000000  0.00000000       0.057
   0.04155403  0.00000000  0.00000000       0.057
   0.00742028  0.02142074  0.00000000       0.057
   0.02819730  0.02142074  0.00000000       0.057
   0.04897432  0.02142074  0.00000000       0.057
  -0.03413375  0.02142074  0.00000000       0.057
  -0.01335673  0.02142074  0.00000000       0.057
   0.01484057  0.04284148  0.00000000       0.057
   0.03561758  0.04284148  0.00000000       0.057
   0.05639460  0.04284148  0.00000000       0.057
  -0.02671346  0.04284148  0.00000000       0.057
  -0.00593645  0.04284148  0.00000000       0.057
   0.02226085  0.06426223  0.00000000       0.057
   0.04303787  0.06426223  0.00000000       0.057
   0.06381488  0.06426223  0.00000000       0.057
  -0.01929318  0.06426223  0.00000000       0.057
   0.00148384  0.06426223  0.00000000       0.057
 
 k-points in reciprocal lattice and weights: Automatic generatic                     
   0.00000000  0.00000000  0.00000000       0.029
   0.20000000  0.00000000  0.00000000       0.057
   0.40000000  0.00000000  0.00000000       0.057
   0.00000000  0.14285714  0.00000000       0.057
   0.20000000  0.14285714  0.00000000       0.057
   0.40000000  0.14285714  0.00000000       0.057
  -0.40000000  0.14285714  0.00000000       0.057
  -0.20000000  0.14285714  0.00000000       0.057
   0.00000000  0.28571429  0.00000000       0.057
   0.20000000  0.28571429  0.00000000       0.057
   0.40000000  0.28571429  0.00000000       0.057
  -0.40000000  0.28571429  0.00000000       0.057
  -0.20000000  0.28571429  0.00000000       0.057
   0.00000000  0.42857143  0.00000000       0.057
   0.20000000  0.42857143  0.00000000       0.057
   0.40000000  0.42857143  0.00000000       0.057
  -0.40000000  0.42857143  0.00000000       0.057
  -0.20000000  0.42857143  0.00000000       0.057
 
 position of ions in fractional coordinates (direct lattice) 
   0.78062397  0.68316154  0.06910292
   0.52133383  0.82517837  0.06767689
   0.17861667  0.57566506  0.07044901
   0.41335044  0.25992076  0.07033161
   0.07136000  0.03377979  0.06739948
   0.81746380  0.23764150  0.07040398
   0.18304727  0.54782186  0.51689011
   0.78337524  0.57945710  0.51700880
   0.52581688  0.76845227  0.51997321
   0.42095170  0.22516347  0.51672279
   0.07600198  0.98859339  0.51969134
   0.81362910  0.13265739  0.51792762
   0.59810075  0.79821886  0.00046106
   0.19952069  0.59615198  0.00123195
   0.39890210  0.19979352  0.00143489
   0.00346769  0.99819733  0.99971315
   0.80089855  0.39915961  0.00237275
   0.59972527  0.46322269  0.98139240
   0.00057471  0.66217785  0.98078664
   0.80041986  0.06539788  0.98141332
   0.39790229  0.86608637  0.98066130
   0.20163799  0.26731180  0.97975442
   0.39913639  0.86629683  0.92166659
   0.20086352  0.26664695  0.92107276
   0.60099269  0.46569143  0.92212094
   0.80003431  0.06507123  0.92209877
   0.99913814  0.66379073  0.92174102
   0.79990232  0.73212715  0.90188744
   0.40131759  0.53366290  0.90182458
   0.99960078  0.33139783  0.90175684
   0.19898325  0.93159555  0.90173439
   0.60006428  0.13231889  0.90196953
   0.80000000  0.73332378  0.84280773
   0.00000000  0.33333333  0.84280773
   0.60000000  0.13332485  0.84280773
   0.40000000  0.53332591  0.84280773
   0.20000000  0.93332697  0.84280773
   0.20000000  0.59999363  0.82315870
   0.80000000  0.39999045  0.82315870
   0.60000000  0.79999151  0.82315870
   0.40000000  0.19999257  0.82315870
   0.00000000  0.00000000  0.82315870
   0.60050204  0.79972968  0.76423800
   0.20009213  0.59932057  0.76409866
   0.40002995  0.19972446  0.76413987
   0.99980349  0.99880153  0.76420276
   0.80029594  0.39920588  0.76413981
   0.60044616  0.46644243  0.74435874
   0.99994035  0.66590751  0.74412201
   0.80019735  0.06568982  0.74417212
   0.40057660  0.86639790  0.74442568
   0.19934119  0.26533831  0.74429974
   0.40137960  0.86712976  0.68554052
   0.19897515  0.26512848  0.68535784
   0.60061319  0.46739452  0.68541420
   0.80022055  0.06618389  0.68512438
   0.00014779  0.66668030  0.68505103
   0.80003786  0.73315047  0.66486289
   0.39934554  0.53222039  0.66614940
   0.99933066  0.33308996  0.66515145
   0.20153984  0.93270414  0.66562758
   0.60092840  0.13496586  0.66547052
   0.79990800  0.73252993  0.60544596
   0.00086207  0.33504525  0.60595463
   0.59948545  0.13587192  0.60642705
   0.39848513  0.53084769  0.60744157
   0.20265144  0.93231283  0.60670496
   0.20120962  0.59892408  0.58585863
   0.79957499  0.39731902  0.58474348
   0.59636559  0.79993969  0.58747533
   0.40068673  0.20215768  0.58595354
   0.00312874  0.00060396  0.58697804
 
 position of ions in cartesian coordinates  (Angst):
   7.54150476  1.96014165  2.77412273
   5.03653713  3.77843220  2.71687519
   1.72559196  3.25531125  2.82816152
   3.99332383  0.35640015  2.82344860
   0.68939949 -0.01271602  2.70573881
   7.89740957 -1.14512100  2.82635355
   1.76839545  3.05412249 20.75045024
   7.56808446  1.25681501 20.75521505
   5.07984724  3.38374759 20.87422064
   4.06675864  0.09832282 20.74373304
   0.73424510  6.36255092 20.86290498
   7.86036299 -1.83497227 20.79210088
   5.77817217  3.34107837  0.01850902
   1.92754295  3.32247810  0.04945642
   3.85374038  0.00230641  0.05760329
   0.03350085  6.66957480 40.13328442
   7.73737485 -0.00860361  0.09525359
   5.79386642  1.09343024 39.39780174
   0.00555224  4.43019553 39.37348346
   7.73275028 -2.24095081 39.39864147
   3.84408136  4.46531390 39.36845173
   1.94799789  1.11438440 39.33204518
   3.85600381  4.46259256 37.00012102
   1.94051591  1.11252615 36.97628180
   5.80611076  1.10571259 37.01836086
   7.72902555 -2.24184689 37.01747078
   9.65254127  1.09921133 37.00310878
   7.72775036  2.22336380 36.20609081
   3.87707610  2.22889247 36.20356752
   9.65701075 -1.12712416 36.20084818
   1.92235087  5.56948280 36.19994663
   5.79714151 -1.12252460 36.20938659
   7.72869407  2.23104629 33.83434772
   0.00000000  2.23108180 33.83434772
   5.79652055 -1.11557641 33.83434772
   3.86434703  2.23104629 33.83434772
   1.93217352  5.57766899 33.83434772
   1.93217352  3.34658719 33.04554118
   7.72869407 -0.00003551 33.04554118
   5.79652055  3.34658719 33.04554118
   3.86434703 -0.00003551 33.04554118
   0.00000000  0.00000000 33.04554118
   5.80137068  3.34315458 30.68018160
   1.93306356  3.34177391 30.67458807
   3.86463638 -0.00193032 30.67624227
   9.65896909  3.33929422 30.67876678
   7.73155313 -0.00627720 30.67623991
   5.80083087  1.11256821 29.88213272
   9.66029134  1.11069482 29.87262922
   7.73060069 -2.23825214 29.87464097
   3.86991747  4.45844927 29.88481988
   1.92580889  1.10886172 29.87976424
   3.87767512  4.46066044 27.52088713
   1.92227256  1.10868228 27.51355355
   5.80244446  1.11838184 27.51581618
   7.73082482 -2.23502283 27.50418109
   0.00142774  4.46176030 27.50123666
   7.72905984  2.22975956 26.69078786
   3.85802438  2.22583701 26.74243430
   9.65440113 -1.11489431 26.70237212
   1.94704967  5.56834708 26.72148606
   5.80548969 -1.10769963 26.71518084
   7.72780528  2.22604072 24.30550710
   0.00832839  2.23965508 24.32592755
   5.79154955 -1.09680620 24.34489272
   3.84971203  2.21952866 24.38562031
   1.95778875  5.56200786 24.35604945
   1.94385951  3.33538029 23.51917768
   7.72458810 -0.01649374 23.47441021
   5.76140902  3.35840317 23.58407979
   3.87098147  0.01215788 23.52298747
   0.03022638 -0.00642816 23.56411617
 


--------------------------------------------------------------------------------------------------------


 k-point  1 :  0.00000.00000.0000  plane waves:  22663
 k-point  2 :  0.20000.00000.0000  plane waves:  22685
 k-point  3 :  0.40000.00000.0000  plane waves:  22722
 k-point  4 :  0.00000.14290.0000  plane waves:  22636
 k-point  5 :  0.20000.14290.0000  plane waves:  22686
 k-point  6 :  0.40000.14290.0000  plane waves:  22708
 k-point  7 :  -.40000.14290.0000  plane waves:  22710
 k-point  8 :  -.20000.14290.0000  plane waves:  22642
 k-point  9 :  0.00000.28570.0000  plane waves:  22628
 k-point 10 :  0.20000.28570.0000  plane waves:  22653
 k-point 11 :  0.40000.28570.0000  plane waves:  22688
 k-point 12 :  -.40000.28570.0000  plane waves:  22653
 k-point 13 :  -.20000.28570.0000  plane waves:  22659
 k-point 14 :  0.00000.42860.0000  plane waves:  22580
 k-point 15 :  0.20000.42860.0000  plane waves:  22615
 k-point 16 :  0.40000.42860.0000  plane waves:  22611
 k-point 17 :  -.40000.42860.0000  plane waves:  22585
 k-point 18 :  -.20000.42860.0000  plane waves:  22597

 maximum and minimum number of plane-waves per node :   2860  2807

 maximum number of plane-waves:  22722
 maximal index in each direction: 
   IXMAX= 13   IYMAX=  8   IZMAX= 51
   IXMIN=-13   IYMIN= -8   IZMIN=-51

 NGX is ok and might be reduce to  54
 NGY is ok and might be reduce to  34
 NGZ is ok and might be reduce to 206

 parallel 3dFFT wavefunction:
    minimum data exchange during FFTs selected (reduces bandwidth)
 parallel 3dFFT charge:
    minimum data exchange during FFTs selected (reduces bandwidth)

 For storing wavefunctions 1187.28 MBYTES are necessary
 For predicting wavefunctions  139.62 MBYTES are necessary
Broyden mixing: mesh for mixing (old mesh)
   NGX = 27   NGY = 17   NGZ =103
  (NGX  = 60   NGY  = 40   NGZ  =240)
 gives a total of  47277 points
 initial charge density was supplied:
 number of electron  287.9998727 magnetization 
 keeping initial charge density in first step


--------------------------------------------------------------------------------------------------------


 Maximum index for augmentation-charges          251 (set IRDMAX)


--------------------------------------------------------------------------------------------------------


 First call to EWALD:  gamma=   0.129
 Maximum number of real-space cells 4x 5x 1
 Maximum number of reciprocal cells 2x 2x 7

    FEWALD:  VPU time    0.03: CPU time    0.03


----------------------------------------- Iteration    1(   1)  ---------------------------------------


    POTLOK:  VPU time    0.12: CPU time    0.13
    SETDIJ:  VPU time    0.01: CPU time    0.01
    EDDAV :  VPU time   67.84: CPU time   68.27
    DOS   :  VPU time    0.00: CPU time    0.00
    ------------------------------------------
      LOOP:  VPU time   67.99: CPU time   68.43

 eigenvalue-minimisations  :  6552
 total energy-change (2. order) : 0.8247216E+03  (-0.6429679E+04)
 number of electron  287.9998727 magnetization 
 augmentation part   287.9998727 magnetization 

 DIPCOR: dipole corrections for dipol
 direction  3 min pos    72,
 dipolmoment           0.000000      0.000000      0.641012 electrons x Angstroem
 Tr[quadrupol]     -3358.056687

 energy correction for charged system         0.000000 eV
 dipol+quadrupol energy correction           -0.014321 eV
 added-field ion interaction         -1.426239 eV  (added to PSCEN)


 Free energy of the ion-electron system (eV)
  ---------------------------------------------------
  alpha Z        PSCENC =        84.93378609
  Ewald energy   TEWEN  =     61093.29045465
  -1/2 Hartree   DENC   =    -68558.02497976
  -V(xc)+E(xc)   XCENC  =     -2090.80459147
  PAW double counting   =      4411.52226540    -1756.54009690
  entropy T*S    EENTRO =        -0.00005882
  eigenvalues    EBANDS =       292.82882931
  atomic energy  EATOM  =      7347.51602654
  ---------------------------------------------------
  free energy    TOTEN  =       824.72163505 eV

  energy without entropy =      824.72169386  energy(sigma->0) =      824.72166446


--------------------------------------------------------------------------------------------------------




----------------------------------------- Iteration    1(   2)  ---------------------------------------


    EDDAV :  VPU time   79.44: CPU time   79.90
    DOS   :  VPU time    0.00: CPU time    0.00
    ------------------------------------------
      LOOP:  VPU time   79.44: CPU time   79.91

 eigenvalue-minimisations  :  8082
 total energy-change (2. order) :-0.1078701E+04  (-0.1028065E+04)
 number of electron  287.9998727 magnetization 
 augmentation part   287.9998727 magnetization 

 DIPCOR: dipole corrections for dipol
 direction  3 min pos    72,
 dipolmoment           0.000000      0.000000      0.641012 electrons x Angstroem
 Tr[quadrupol]     -3358.056687

 energy correction for charged system         0.000000 eV
 dipol+quadrupol energy correction           -0.014321 eV
 added-field ion interaction         -1.426239 eV  (added to PSCEN)


 Free energy of the ion-electron system (eV)
  ---------------------------------------------------
  alpha Z        PSCENC =        84.93378609
  Ewald energy   TEWEN  =     61093.29045465
  -1/2 Hartree   DENC   =    -68558.02497976
  -V(xc)+E(xc)   XCENC  =     -2090.80459147
  PAW double counting   =      4411.52226540    -1756.54009690
  entropy T*S    EENTRO =         0.00000000
  eigenvalues    EBANDS =      -785.87193286
  atomic energy  EATOM  =      7347.51602654
  ---------------------------------------------------
  free energy    TOTEN  =      -253.97906831 eV

  energy without entropy =     -253.97906831  energy(sigma->0) =     -253.97906831


--------------------------------------------------------------------------------------------------------




----------------------------------------- Iteration    1(   3)  ---------------------------------------


    EDDAV :  VPU time   80.41: CPU time   80.79
    DOS   :  VPU time    0.00: CPU time    0.00
    ------------------------------------------
      LOOP:  VPU time   80.43: CPU time   80.80

 eigenvalue-minimisations  :  8200
 total energy-change (2. order) :-0.1030603E+03  (-0.1004501E+03)
 number of electron  287.9998727 magnetization 
 augmentation part   287.9998727 magnetization 

 DIPCOR: dipole corrections for dipol
 direction  3 min pos    72,
 dipolmoment           0.000000      0.000000      0.641012 electrons x Angstroem
 Tr[quadrupol]     -3358.056687

 energy correction for charged system         0.000000 eV
 dipol+quadrupol energy correction           -0.014321 eV
 added-field ion interaction         -1.426239 eV  (added to PSCEN)


 Free energy of the ion-electron system (eV)
  ---------------------------------------------------
  alpha Z        PSCENC =        84.93378609
  Ewald energy   TEWEN  =     61093.29045465
  -1/2 Hartree   DENC   =    -68558.02497976
  -V(xc)+E(xc)   XCENC  =     -2090.80459147
  PAW double counting   =      4411.52226540    -1756.54009690
  entropy T*S    EENTRO =         0.00000000
  eigenvalues    EBANDS =      -888.93222507
  atomic energy  EATOM  =      7347.51602654
  ---------------------------------------------------
  free energy    TOTEN  =      -357.03936051 eV

  energy without entropy =     -357.03936051  energy(sigma->0) =     -357.03936051


--------------------------------------------------------------------------------------------------------




----------------------------------------- Iteration    1(   4)  ---------------------------------------


    EDDAV :  VPU time   87.89: CPU time   88.30
    DOS   :  VPU time    0.00: CPU time    0.00
    ------------------------------------------
      LOOP:  VPU time   87.90: CPU time   88.31

 eigenvalue-minimisations  :  9192
 total energy-change (2. order) :-0.4718210E+01  (-0.4689324E+01)
 number of electron  287.9998727 magnetization 
 augmentation part   287.9998727 magnetization 

 DIPCOR: dipole corrections for dipol
 direction  3 min pos    72,
 dipolmoment           0.000000      0.000000      0.641012 electrons x Angstroem
 Tr[quadrupol]     -3358.056687

 energy correction for charged system         0.000000 eV
 dipol+quadrupol energy correction           -0.014321 eV
 added-field ion interaction         -1.426239 eV  (added to PSCEN)


 Free energy of the ion-electron system (eV)
  ---------------------------------------------------
  alpha Z        PSCENC =        84.93378609
  Ewald energy   TEWEN  =     61093.29045465
  -1/2 Hartree   DENC   =    -68558.02497976
  -V(xc)+E(xc)   XCENC  =     -2090.80459147
  PAW double counting   =      4411.52226540    -1756.54009690
  entropy T*S    EENTRO =         0.00000000
  eigenvalues    EBANDS =      -893.65043507
  atomic energy  EATOM  =      7347.51602654
  ---------------------------------------------------
  free energy    TOTEN  =      -361.75757052 eV

  energy without entropy =     -361.75757052  energy(sigma->0) =     -361.75757052


--------------------------------------------------------------------------------------------------------




----------------------------------------- Iteration    1(   5)  ---------------------------------------


    EDDAV :  VPU time   85.19: CPU time   85.68
    DOS   :  VPU time    0.00: CPU time    0.00
    CHARGE:  VPU time    2.20: CPU time    2.21
    MIXING:  VPU time    0.00: CPU time    0.00
    ------------------------------------------
      LOOP:  VPU time   87.40: CPU time   87.90

 eigenvalue-minimisations  :  8848
 total energy-change (2. order) :-0.1406844E+00  (-0.1404575E+00)
 number of electron  287.9998726 magnetization 
 augmentation part   -29.2329584 magnetization 

 DIPCOR: dipole corrections for dipol
 direction  3 min pos    72,
 dipolmoment           0.000000      0.000000      0.641012 electrons x Angstroem
 Tr[quadrupol]     -3358.056687

 energy correction for charged system         0.000000 eV
 dipol+quadrupol energy correction           -0.014321 eV
 added-field ion interaction         -1.426239 eV  (added to PSCEN)


 Broyden mixing:
  rms(total) = 0.92578E-01    rms(broyden)= 0.92576E-01
  rms(prec ) = 0.27220E+00
  weight for this iteration     100.00

 Free energy of the ion-electron system (eV)
  ---------------------------------------------------
  alpha Z        PSCENC =        84.93378609
  Ewald energy   TEWEN  =     61093.29045465
  -1/2 Hartree   DENC   =    -68558.02497976
  -V(xc)+E(xc)   XCENC  =     -2090.80459147
  PAW double counting   =      4411.52226540    -1756.54009690
  entropy T*S    EENTRO =         0.00000000
  eigenvalues    EBANDS =      -893.79111943
  atomic energy  EATOM  =      7347.51602654
  ---------------------------------------------------
  free energy    TOTEN  =      -361.89825488 eV

  energy without entropy =     -361.89825488  energy(sigma->0) =     -361.89825488


--------------------------------------------------------------------------------------------------------




----------------------------------------- Iteration    1(   6)  ---------------------------------------


    POTLOK:  VPU time    0.11: CPU time    0.11
    SETDIJ:  VPU time    0.01: CPU time    0.01
    EDDAV :  VPU time  113.59: CPU time  114.07
    DOS   :  VPU time    0.00: CPU time    0.00
    CHARGE:  VPU time    2.19: CPU time    2.20
    MIXING:  VPU time    0.00: CPU time    0.00
    ------------------------------------------
      LOOP:  VPU time  115.92: CPU time  116.41

 eigenvalue-minimisations  : 12536
 total energy-change (2. order) :-0.3989806E+02  (-0.3309062E+01)
 number of electron  287.9998696 magnetization 
 augmentation part   -29.4905352 magnetization 

 DIPCOR: dipole corrections for dipol
 direction  3 min pos    72,
 dipolmoment           0.000000      0.000000      2.909231 electrons x Angstroem
 Tr[quadrupol]     -3357.327397

 energy correction for charged system         0.000000 eV
 dipol+quadrupol energy correction           -0.294992 eV
 added-field ion interaction          2.650461 eV  (added to PSCEN)


 Broyden mixing:
  rms(total) = 0.14565E+01    rms(broyden)= 0.14565E+01
  rms(prec ) = 0.48850E+01
  weight for this iteration     100.00

 eigenvalues of (default mixing * dielectric matrix)
  average eigenvalue GAMMA=   0.0452
  0.0452

 Free energy of the ion-electron system (eV)
  ---------------------------------------------------
  alpha Z        PSCENC =        88.72981517
  Ewald energy   TEWEN  =     61093.29045465
  -1/2 Hartree   DENC   =    -68549.92636771
  -V(xc)+E(xc)   XCENC  =     -2090.83488132
  PAW double counting   =      4412.59748872    -1757.61878791
  entropy T*S    EENTRO =        -0.00006448
  eigenvalues    EBANDS =      -945.54999966
  atomic energy  EATOM  =      7347.51602654
  ---------------------------------------------------
  free energy    TOTEN  =      -401.79631600 eV

  energy without entropy =     -401.79625153  energy(sigma->0) =     -401.79628377


--------------------------------------------------------------------------------------------------------




----------------------------------------- Iteration    1(   7)  ---------------------------------------


    POTLOK:  VPU time    0.10: CPU time    0.10
    SETDIJ:  VPU time    0.01: CPU time    0.01
    EDDAV :  VPU time  110.36: CPU time  110.84
    DOS   :  VPU time    0.00: CPU time    0.00
    CHARGE:  VPU time    2.22: CPU time    2.23
    MIXING:  VPU time    0.00: CPU time    0.00
    ------------------------------------------
      LOOP:  VPU time  112.71: CPU time  113.20

 eigenvalue-minimisations  : 12160
 total energy-change (2. order) : 0.4109301E+02  (-0.7322115E+01)
 number of electron  287.9998727 magnetization 
 augmentation part   -29.0947441 magnetization 

 DIPCOR: dipole corrections for dipol
 direction  3 min pos    73,
 dipolmoment           0.000000      0.000000      0.897257 electrons x Angstroem
 Tr[quadrupol]     -3356.311352

 energy correction for charged system         0.000000 eV
 dipol+quadrupol energy correction           -0.028060 eV
 added-field ion interaction         -2.769979 eV  (added to PSCEN)


 Broyden mixing:
  rms(total) = 0.63553E-01    rms(broyden)= 0.63041E-01
  rms(prec ) = 0.10071E+00
  weight for this iteration     100.00

 eigenvalues of (default mixing * dielectric matrix)
  average eigenvalue GAMMA=   0.2560
  0.4594  0.0527

 Free energy of the ion-electron system (eV)
  ---------------------------------------------------
  alpha Z        PSCENC =        83.57630744
  Ewald energy   TEWEN  =     61093.29045465
  -1/2 Hartree   DENC   =    -68542.89827608
  -V(xc)+E(xc)   XCENC  =     -2090.91970311
  PAW double counting   =      4411.96357844    -1756.96090023
  entropy T*S    EENTRO =         0.00000000
  eigenvalues    EBANDS =      -906.27079516
  atomic energy  EATOM  =      7347.51602654
  ---------------------------------------------------
  free energy    TOTEN  =      -360.70330752 eV

  energy without entropy =     -360.70330752  energy(sigma->0) =     -360.70330752


--------------------------------------------------------------------------------------------------------




----------------------------------------- Iteration    1(   8)  ---------------------------------------


    POTLOK:  VPU time    0.11: CPU time    0.11
    SETDIJ:  VPU time    0.01: CPU time    0.01
    EDDAV :  VPU time   81.15: CPU time   81.56
    DOS   :  VPU time    0.00: CPU time    0.00
    CHARGE:  VPU time    2.19: CPU time    2.20
    MIXING:  VPU time    0.00: CPU time    0.00
    ------------------------------------------
      LOOP:  VPU time   83.47: CPU time   83.90

 eigenvalue-minimisations  :  8288
 total energy-change (2. order) :-0.9147518E+00  (-0.8892837E+00)
 number of electron  287.9998726 magnetization 
 augmentation part   -29.2028466 magnetization 

 DIPCOR: dipole corrections for dipol
 direction  3 min pos    74,
 dipolmoment           0.000000      0.000000      0.816756 electrons x Angstroem
 Tr[quadrupol]     -3357.159804

 energy correction for charged system         0.000000 eV
 dipol+quadrupol energy correction           -0.023251 eV
 added-field ion interaction         -5.259620 eV  (added to PSCEN)


 Broyden mixing:
  rms(total) = 0.28541E-01    rms(broyden)= 0.28464E-01
  rms(prec ) = 0.57501E-01
  weight for this iteration     100.00

 eigenvalues of (default mixing * dielectric matrix)
  average eigenvalue GAMMA=   0.3957
  0.0521  0.5675  0.5675

 Free energy of the ion-electron system (eV)
  ---------------------------------------------------
  alpha Z        PSCENC =        81.09147496
  Ewald energy   TEWEN  =     61093.29045465
  -1/2 Hartree   DENC   =    -68547.11344716
  -V(xc)+E(xc)   XCENC  =     -2090.89717909
  PAW double counting   =      4409.99896581    -1754.99331996
  entropy T*S    EENTRO =         0.00000000
  eigenvalues    EBANDS =      -900.51103507
  atomic energy  EATOM  =      7347.51602654
  ---------------------------------------------------
  free energy    TOTEN  =      -361.61805933 eV

  energy without entropy =     -361.61805933  energy(sigma->0) =     -361.61805933


--------------------------------------------------------------------------------------------------------




----------------------------------------- Iteration    1(   9)  ---------------------------------------


    POTLOK:  VPU time    0.11: CPU time    0.11
    SETDIJ:  VPU time    0.01: CPU time    0.01
    EDDAV :  VPU time   80.43: CPU time   80.85
    DOS   :  VPU time    0.00: CPU time    0.00
    CHARGE:  VPU time    2.20: CPU time    2.23
    MIXING:  VPU time    0.00: CPU time    0.00
    ------------------------------------------
      LOOP:  VPU time   82.76: CPU time   83.21

 eigenvalue-minimisations  :  8200
 total energy-change (2. order) :-0.3336764E-01  (-0.4542433E-01)
 number of electron  287.9998727 magnetization 
 augmentation part   -29.2032527 magnetization 

 DIPCOR: dipole corrections for dipol
 direction  3 min pos    74,
 dipolmoment           0.000000      0.000000      0.813563 electrons x Angstroem
 Tr[quadrupol]     -3358.325259

 energy correction for charged system         0.000000 eV
 dipol+quadrupol energy correction           -0.023069 eV
 added-field ion interaction         -5.286806 eV  (added to PSCEN)


 Broyden mixing:
  rms(total) = 0.19170E-01    rms(broyden)= 0.19163E-01
  rms(prec ) = 0.43366E-01
  weight for this iteration     100.00

 eigenvalues of (default mixing * dielectric matrix)
  average eigenvalue GAMMA=   0.4683
  0.0521  0.6684  0.6684  0.4843

 Free energy of the ion-electron system (eV)
  ---------------------------------------------------
  alpha Z        PSCENC =        81.06447128
  Ewald energy   TEWEN  =     61093.29045465
  -1/2 Hartree   DENC   =    -68555.85287906
  -V(xc)+E(xc)   XCENC  =     -2090.85687621
  PAW double counting   =      4410.55324452    -1755.56530754
  entropy T*S    EENTRO =         0.00000000
  eigenvalues    EBANDS =      -891.80056113
  atomic energy  EATOM  =      7347.51602654
  ---------------------------------------------------
  free energy    TOTEN  =      -361.65142696 eV

  energy without entropy =     -361.65142696  energy(sigma->0) =     -361.65142696


--------------------------------------------------------------------------------------------------------




----------------------------------------- Iteration    1(  10)  ---------------------------------------


    POTLOK:  VPU time    0.10: CPU time    0.10
    SETDIJ:  VPU time    0.02: CPU time    0.01
    EDDAV :  VPU time   78.87: CPU time   79.29
    DOS   :  VPU time    0.00: CPU time    0.00
    CHARGE:  VPU time    2.19: CPU time    2.20
    MIXING:  VPU time    0.00: CPU time    0.00
    ------------------------------------------
      LOOP:  VPU time   81.19: CPU time   81.62

 eigenvalue-minimisations  :  7984
 total energy-change (2. order) : 0.1219439E-02  (-0.3404581E-02)
 number of electron  287.9998727 magnetization 
 augmentation part   -29.2230724 magnetization 

 DIPCOR: dipole corrections for dipol
 direction  3 min pos    74,
 dipolmoment           0.000000      0.000000      0.820615 electrons x Angstroem
 Tr[quadrupol]     -3358.263934

 energy correction for charged system         0.000000 eV
 dipol+quadrupol energy correction           -0.023471 eV
 added-field ion interaction         -5.226768 eV  (added to PSCEN)


 Broyden mixing:
  rms(total) = 0.15865E-01    rms(broyden)= 0.15864E-01
  rms(prec ) = 0.37992E-01
  weight for this iteration     100.00

 eigenvalues of (default mixing * dielectric matrix)
  average eigenvalue GAMMA=   0.5361
  0.8302  0.8302  0.0521  0.4841  0.4841

 Free energy of the ion-electron system (eV)
  ---------------------------------------------------
  alpha Z        PSCENC =        81.12410704
  Ewald energy   TEWEN  =     61093.29045465
  -1/2 Hartree   DENC   =    -68555.46500959
  -V(xc)+E(xc)   XCENC  =     -2090.83448985
  PAW double counting   =      4411.05455521    -1756.08194412
  entropy T*S    EENTRO =         0.00000000
  eigenvalues    EBANDS =      -892.25390739
  atomic energy  EATOM  =      7347.51602654
  ---------------------------------------------------
  free energy    TOTEN  =      -361.65020752 eV

  energy without entropy =     -361.65020752  energy(sigma->0) =     -361.65020752


--------------------------------------------------------------------------------------------------------




----------------------------------------- Iteration    1(  11)  ---------------------------------------


    POTLOK:  VPU time    0.10: CPU time    0.11
    SETDIJ:  VPU time    0.02: CPU time    0.01
    EDDAV :  VPU time   93.19: CPU time   93.60
    DOS   :  VPU time    0.00: CPU time    0.00
    CHARGE:  VPU time    2.21: CPU time    2.22
    MIXING:  VPU time    0.00: CPU time    0.00
    ------------------------------------------
      LOOP:  VPU time   95.53: CPU time   95.95

 eigenvalue-minimisations  :  9896
 total energy-change (2. order) : 0.3869935E-02  (-0.3488027E-03)
 number of electron  287.9998727 magnetization 
 augmentation part   -29.2253739 magnetization 

 DIPCOR: dipole corrections for dipol
 direction  3 min pos    74,
 dipolmoment           0.000000      0.000000      0.831513 electrons x Angstroem
 Tr[quadrupol]     -3358.400784

 energy correction for charged system         0.000000 eV
 dipol+quadrupol energy correction           -0.024099 eV
 added-field ion interaction         -5.133982 eV  (added to PSCEN)


 Broyden mixing:
  rms(total) = 0.12125E-01    rms(broyden)= 0.12125E-01
  rms(prec ) = 0.31139E-01
  weight for this iteration     100.00

 eigenvalues of (default mixing * dielectric matrix)
  average eigenvalue GAMMA=   0.6102
  1.0119  1.0119  0.0521  0.5508  0.5508  0.4837

 Free energy of the ion-electron system (eV)
  ---------------------------------------------------
  alpha Z        PSCENC =        81.21626559
  Ewald energy   TEWEN  =     61093.29045465
  -1/2 Hartree   DENC   =    -68556.41630761
  -V(xc)+E(xc)   XCENC  =     -2090.82753866
  PAW double counting   =      4411.20475883    -1756.22677377
  entropy T*S    EENTRO =         0.00000000
  eigenvalues    EBANDS =      -891.40322316
  atomic energy  EATOM  =      7347.51602654
  ---------------------------------------------------
  free energy    TOTEN  =      -361.64633759 eV

  energy without entropy =     -361.64633759  energy(sigma->0) =     -361.64633759


--------------------------------------------------------------------------------------------------------




----------------------------------------- Iteration    1(  12)  ---------------------------------------


    POTLOK:  VPU time    0.10: CPU time    0.10
    SETDIJ:  VPU time    0.02: CPU time    0.01
    EDDAV :  VPU time   88.86: CPU time   89.29
    DOS   :  VPU time    0.00: CPU time    0.00
    CHARGE:  VPU time    2.20: CPU time    2.21
    MIXING:  VPU time    0.00: CPU time    0.00
    ------------------------------------------
      LOOP:  VPU time   91.19: CPU time   91.63

 eigenvalue-minimisations  :  9312
 total energy-change (2. order) : 0.5278486E-02  (-0.1749398E-03)
 number of electron  287.9998727 magnetization 
 augmentation part   -29.2225518 magnetization 

 DIPCOR: dipole corrections for dipol
 direction  3 min pos    73,
 dipolmoment           0.000000      0.000000      0.852503 electrons x Angstroem
 Tr[quadrupol]     -3358.258118

 energy correction for charged system         0.000000 eV
 dipol+quadrupol energy correction           -0.025331 eV
 added-field ion interaction         -3.000705 eV  (added to PSCEN)


 Broyden mixing:
  rms(total) = 0.85275E-02    rms(broyden)= 0.85272E-02
  rms(prec ) = 0.21911E-01
  weight for this iteration     100.00

 eigenvalues of (default mixing * dielectric matrix)
  average eigenvalue GAMMA=   0.6212
  1.0788  1.0788  0.0521  0.5956  0.5956  0.4737  0.4737

 Free energy of the ion-electron system (eV)
  ---------------------------------------------------
  alpha Z        PSCENC =        83.34831027
  Ewald energy   TEWEN  =     61093.29045465
  -1/2 Hartree   DENC   =    -68557.30732260
  -V(xc)+E(xc)   XCENC  =     -2090.81757827
  PAW double counting   =      4411.41453549    -1756.42994916
  entropy T*S    EENTRO =         0.00000000
  eigenvalues    EBANDS =      -892.65553602
  atomic energy  EATOM  =      7347.51602654
  ---------------------------------------------------
  free energy    TOTEN  =      -361.64105910 eV

  energy without entropy =     -361.64105910  energy(sigma->0) =     -361.64105910


--------------------------------------------------------------------------------------------------------




----------------------------------------- Iteration    1(  13)  ---------------------------------------


    POTLOK:  VPU time    0.10: CPU time    0.11
    SETDIJ:  VPU time    0.01: CPU time    0.01
    EDDAV :  VPU time   81.24: CPU time   81.69
    DOS   :  VPU time    0.00: CPU time    0.00
    CHARGE:  VPU time    2.20: CPU time    2.24
    MIXING:  VPU time    0.00: CPU time    0.00
    ------------------------------------------
      LOOP:  VPU time   83.58: CPU time   84.07

 eigenvalue-minimisations  :  8320
 total energy-change (2. order) : 0.2005997E-02  (-0.1714607E-03)
 number of electron  287.9998727 magnetization 
 augmentation part   -29.2284731 magnetization 

 DIPCOR: dipole corrections for dipol
 direction  3 min pos    72,
 dipolmoment           0.000000      0.000000      0.866819 electrons x Angstroem
 Tr[quadrupol]     -3358.055444

 energy correction for charged system         0.000000 eV
 dipol+quadrupol energy correction           -0.026189 eV
 added-field ion interaction         -1.020393 eV  (added to PSCEN)


 Broyden mixing:
  rms(total) = 0.69771E-02    rms(broyden)= 0.69766E-02
  rms(prec ) = 0.11553E-01
  weight for this iteration     100.00

 eigenvalues of (default mixing * dielectric matrix)
  average eigenvalue GAMMA=   0.5524
  1.0742  1.0742  0.0521  0.5893  0.5893  0.4620  0.4620  0.1157

 Free energy of the ion-electron system (eV)
  ---------------------------------------------------
  alpha Z        PSCENC =        85.32776495
  Ewald energy   TEWEN  =     61093.29045465
  -1/2 Hartree   DENC   =    -68557.84374031
  -V(xc)+E(xc)   XCENC  =     -2090.80838882
  PAW double counting   =      4411.53625350    -1756.55184913
  entropy T*S    EENTRO =        -0.00003224
  eigenvalues    EBANDS =      -894.10554224
  atomic energy  EATOM  =      7347.51602654
  ---------------------------------------------------
  free energy    TOTEN  =      -361.63905311 eV

  energy without entropy =     -361.63902087  energy(sigma->0) =     -361.63903699


--------------------------------------------------------------------------------------------------------




----------------------------------------- Iteration    1(  14)  ---------------------------------------


    POTLOK:  VPU time    0.10: CPU time    0.10
    SETDIJ:  VPU time    0.01: CPU time    0.01
    EDDAV :  VPU time   74.99: CPU time   75.53
    DOS   :  VPU time    0.00: CPU time    0.00
    CHARGE:  VPU time    2.21: CPU time    2.22
    MIXING:  VPU time    0.00: CPU time    0.00
    ------------------------------------------
      LOOP:  VPU time   77.32: CPU time   77.88

 eigenvalue-minimisations  :  7496
 total energy-change (2. order) :-0.1323340E-03  (-0.2327496E-03)
 number of electron  287.9998727 magnetization 
 augmentation part   -29.2276899 magnetization 

 DIPCOR: dipole corrections for dipol
 direction  3 min pos    72,
 dipolmoment           0.000000      0.000000      0.867166 electrons x Angstroem
 Tr[quadrupol]     -3358.036796

 energy correction for charged system         0.000000 eV
 dipol+quadrupol energy correction           -0.026210 eV
 added-field ion interaction         -1.019769 eV  (added to PSCEN)


 Broyden mixing:
  rms(total) = 0.69437E-02    rms(broyden)= 0.69435E-02
  rms(prec ) = 0.11179E-01
  weight for this iteration     100.00

 eigenvalues of (default mixing * dielectric matrix)
  average eigenvalue GAMMA=   0.5779
  1.1523  1.1523  0.0521  0.6170  0.6170  0.4642  0.4642  0.3673  0.3148

 Free energy of the ion-electron system (eV)
  ---------------------------------------------------
  alpha Z        PSCENC =        85.32836777
  Ewald energy   TEWEN  =     61093.29045465
  -1/2 Hartree   DENC   =    -68557.70035825
  -V(xc)+E(xc)   XCENC  =     -2090.80860779
  PAW double counting   =      4411.55162658    -1756.56704518
  entropy T*S    EENTRO =        -0.00003224
  eigenvalues    EBANDS =      -894.24961750
  atomic energy  EATOM  =      7347.51602654
  ---------------------------------------------------
  free energy    TOTEN  =      -361.63918544 eV

  energy without entropy =     -361.63915320  energy(sigma->0) =     -361.63916932


--------------------------------------------------------------------------------------------------------




----------------------------------------- Iteration    1(  15)  ---------------------------------------


    POTLOK:  VPU time    0.10: CPU time    0.11
    SETDIJ:  VPU time    0.01: CPU time    0.01
    EDDAV :  VPU time   53.60: CPU time   54.12
    DOS   :  VPU time    0.00: CPU time    0.00
    ------------------------------------------
      LOOP:  VPU time   53.72: CPU time   54.26

 eigenvalue-minimisations  :  4616
 total energy-change (2. order) : 0.1625950E-04  (-0.5129500E-05)
 number of electron  287.9998727 magnetization 
 augmentation part   -29.2276899 magnetization 

 DIPCOR: dipole corrections for dipol
 direction  3 min pos    72,
 dipolmoment           0.000000      0.000000      0.867484 electrons x Angstroem
 Tr[quadrupol]     -3358.039103

 energy correction for charged system         0.000000 eV
 dipol+quadrupol energy correction           -0.026229 eV
 added-field ion interaction         -1.019199 eV  (added to PSCEN)


 Free energy of the ion-electron system (eV)
  ---------------------------------------------------
  alpha Z        PSCENC =        85.32891873
  Ewald energy   TEWEN  =     61093.29045465
  -1/2 Hartree   DENC   =    -68557.71959225
  -V(xc)+E(xc)   XCENC  =     -2090.80842612
  PAW double counting   =      4411.55714581    -1756.57249829
  entropy T*S    EENTRO =        -0.00003224
  eigenvalues    EBANDS =      -894.23116599
  atomic energy  EATOM  =      7347.51602654
  ---------------------------------------------------
  free energy    TOTEN  =      -361.63916918 eV

  energy without entropy =     -361.63913694  energy(sigma->0) =     -361.63915306


--------------------------------------------------------------------------------------------------------




 average (electrostatic) potential at core
  the test charge radii are     1.4908  0.9892
  (the norm of the test charge is              1.0000)
       1 -46.1837       2 -45.7501       3 -45.7647       4 -45.8291       5 -45.6459
       6 -45.9787       7 -45.7751       8 -45.9942       9 -45.5945      10 -45.7354
      11 -45.6531      12 -46.1197      13 -87.2983      14 -87.1565      15 -87.1732
      16 -87.2428      17 -87.3719      18 -87.3362      19 -87.2719      20 -87.3944
      21 -87.2982      22 -87.2160      23 -87.2630      24 -87.2349      25 -87.3005
      26 -87.3115      27 -87.2809      28 -87.2862      29 -87.2856      30 -87.2778
      31 -87.2772      32 -87.2999      33 -87.3455      34 -87.3396      35 -87.3524
      36 -87.3416      37 -87.3383      38 -87.3479      39 -87.3432      40 -87.3331
      41 -87.3482      42 -87.3362      43 -87.3197      44 -87.3385      45 -87.3366
      46 -87.3205      47 -87.3314      48 -87.3223      49 -87.3325      50 -87.3270
      51 -87.3174      52 -87.3205      53 -87.2544      54 -87.2630      55 -87.2609
      56 -87.2717      57 -87.2796      58 -87.2934      59 -87.2105      60 -87.2682
      61 -87.2316      62 -87.2535      63 -87.3771      64 -87.2756      65 -87.2248
      66 -87.1707      67 -87.2269      68 -87.1041      69 -87.3386      70 -87.1892
      71 -87.0946      72 -87.2143
 
 
 
 E-fermi :   1.5917     XC(G=0):  -6.2496     alpha+bet : -6.9462
   add alpha+bet to get absolut eigen values

 k-point   1 :       0.0000    0.0000    0.0000
  band No.  band energies     occupation 
      1      -9.9363      2.00000
      2      -9.7013      2.00000
      3      -9.4356      2.00000
      4      -9.1097      2.00000
      5      -8.7346      2.00000
      6      -8.6134      2.00000
      7      -8.6112      2.00000
      8      -8.3950      2.00000
      9      -8.3773      2.00000
     10      -8.3103      2.00000
     11      -8.1128      2.00000
     12      -8.0992      2.00000
     13      -7.8756      2.00000
     14      -7.8019      2.00000
     15      -7.7494      2.00000
     16      -7.6464      2.00000
     17      -7.3649      2.00000
     18      -7.3608      2.00000
     19      -7.3570      2.00000
     20      -7.3417      2.00000
     21      -7.2254      2.00000
     22      -7.2162      2.00000
     23      -7.0701      2.00000
     24      -7.0471      2.00000
     25      -6.9954      2.00000
     26      -6.9405      2.00000
     27      -6.8425      2.00000
     28      -6.8078      2.00000
     29      -6.6218      2.00000
     30      -6.5741      2.00000
     31      -6.5048      2.00000
     32      -6.3983      2.00000
     33      -6.3672      2.00000
     34      -6.3430      2.00000
     35      -6.2374      2.00000
     36      -6.1877      2.00000
     37      -6.1385      2.00000
     38      -6.0412      2.00000
     39      -5.6200      2.00000
     40      -5.5114      2.00000
     41      -5.3987      2.00000
     42      -5.1835      2.00000
     43      -5.1165      2.00000
     44      -4.9654      2.00000
     45      -4.8923      2.00000
     46      -4.8810      2.00000
     47      -4.8595      2.00000
     48      -4.8407      2.00000
     49      -4.8098      2.00000
     50      -4.7393      2.00000
     51      -4.7034      2.00000
     52      -4.6535      2.00000
     53      -4.6445      2.00000
     54      -4.6165      2.00000
     55      -4.5848      2.00000
     56      -4.5317      2.00000
     57      -4.4784      2.00000
     58      -4.3086      2.00000
     59      -4.2997      2.00000
     60      -3.8368      2.00000
     61      -3.8227      2.00000
     62      -3.8152      2.00000
     63      -3.3997      2.00000
     64      -3.3789      2.00000
     65      -3.0107      2.00000
     66      -2.9832      2.00000
     67      -2.7740      2.00000
     68      -2.7395      2.00000
     69      -2.7233      2.00000
     70      -2.1283      2.00000
     71      -2.1268      2.00000
     72      -2.0951      2.00000
     73      -2.0912      2.00000
     74      -2.0504      2.00000
     75      -2.0129      2.00000
     76      -2.0088      2.00000
     77      -2.0040      2.00000
     78      -1.9154      2.00000
     79      -1.8433      2.00000
     80      -1.8264      2.00000
     81      -1.8157      2.00000
     82      -1.6327      2.00000
     83      -1.6198      2.00000
     84      -1.5731      2.00000
     85      -1.4031      2.00000
     86      -1.3837      2.00000
     87      -1.3654      2.00000
     88      -1.3113      2.00000
     89      -1.2369      2.00000
     90      -1.2214      2.00000
     91      -1.2095      2.00000
     92      -1.1688      2.00000
     93      -1.0829      2.00000
     94      -1.0472      2.00000
     95      -0.9950      2.00000
     96      -0.9912      2.00000
     97      -0.9736      2.00000
     98      -0.9371      2.00000
     99      -0.9265      2.00000
    100      -0.8922      2.00000
    101      -0.8587      2.00000
    102      -0.8418      2.00000
    103      -0.8229      2.00000
    104      -0.7240      2.00000
    105      -0.6194      2.00000
    106      -0.5876      2.00000
    107      -0.5759      2.00000
    108      -0.5531      2.00000
    109      -0.4888      2.00000
    110      -0.3477      2.00000
    111      -0.2987      2.00000
    112      -0.2678      2.00000
    113      -0.2408      2.00000
    114      -0.1701      2.00000
    115      -0.1021      2.00000
    116      -0.0311      2.00000
    117       0.0086      2.00000
    118       0.2931      2.00000
    119       0.3762      2.00000
    120       0.4641      2.00000
    121       0.5882      2.00000
    122       0.6517      2.00000
    123       0.6864      2.00000
    124       0.6879      2.00000
    125       0.7729      2.00000
    126       0.8615      2.00000
    127       0.8680      2.00000
    128       0.8920      2.00000
    129       0.8983      2.00000
    130       0.9374      2.00000
    131       0.9916      2.00000
    132       1.0096      2.00000
    133       1.0210      2.00000
    134       1.0629      2.00000
    135       1.0771      2.00000
    136       1.1004      2.00000
    137       1.2493      2.00000
    138       1.2806      2.00000
    139       1.3108      2.00000
    140       1.3222      2.00000
    141       1.3455      2.00000
    142       1.5009      2.00000
    143       1.5442      2.00000
    144       1.5972      0.00000
    145       1.6100      0.00000
    146       1.7662      0.00000
    147       1.7699      0.00000
    148       2.0170      0.00000
    149       2.1004      0.00000
    150       2.7584      0.00000
    151       2.8229      0.00000
    152       2.8477      0.00000
    153       2.9433      0.00000
    154       3.2617      0.00000
    155       3.3577      0.00000
    156       3.4647      0.00000
    157       3.5368      0.00000
    158       3.5490      0.00000
    159       3.5945      0.00000
    160       3.7432      0.00000
    161       3.7890      0.00000
    162       3.8401      0.00000
    163       3.9092      0.00000
    164       3.9353      0.00000
    165       3.9614      0.00000
    166       4.0386      0.00000
    167       4.0622      0.00000
    168       4.1179      0.00000
    169       4.1858      0.00000
    170       4.2241      0.00000
    171       4.2330      0.00000
    172       4.2996      0.00000
    173       4.3254      0.00000
    174       4.4773      0.00000
    175       4.4974      0.00000
    176       4.5188      0.00000
    177       4.5318      0.00000
    178       4.5651      0.00000
    179       4.6145      0.00000
    180       4.7921      0.00000
    181       4.8373      0.00000
    182       4.8873      0.00000

 k-point   2 :       0.2000    0.0000    0.0000
  band No.  band energies     occupation 
      1      -9.8813      2.00000
      2      -9.6461      2.00000
      3      -9.3804      2.00000
      4      -9.0754      2.00000
      5      -9.0564      2.00000
      6      -8.8355      2.00000
      7      -8.6925      2.00000
      8      -8.5432      2.00000
      9      -8.3168      2.00000
     10      -8.1653      2.00000
     11      -8.0789      2.00000
     12      -7.9169      2.00000
     13      -7.8520      2.00000
     14      -7.7233      2.00000
     15      -7.6585      2.00000
     16      -7.5769      2.00000
     17      -7.5695      2.00000
     18      -7.4195      2.00000
     19      -7.3747      2.00000
     20      -7.2501      2.00000
     21      -7.2365      2.00000
     22      -7.0528      2.00000
     23      -6.9948      2.00000
     24      -6.9551      2.00000
     25      -6.9496      2.00000
     26      -6.8813      2.00000
     27      -6.8240      2.00000
     28      -6.7801      2.00000
     29      -6.7004      2.00000
     30      -6.6804      2.00000
     31      -6.5652      2.00000
     32      -6.5014      2.00000
     33      -6.3825      2.00000
     34      -6.2319      2.00000
     35      -6.1617      2.00000
     36      -6.0888      2.00000
     37      -6.0458      2.00000
     38      -5.8132      2.00000
     39      -5.6878      2.00000
     40      -5.5117      2.00000
     41      -5.3419      2.00000
     42      -5.2544      2.00000
     43      -5.1305      2.00000
     44      -5.1130      2.00000
     45      -4.9550      2.00000
     46      -4.9215      2.00000
     47      -4.8744      2.00000
     48      -4.8547      2.00000
     49      -4.7954      2.00000
     50      -4.7605      2.00000
     51      -4.7405      2.00000
     52      -4.6949      2.00000
     53      -4.6724      2.00000
     54      -4.6621      2.00000
     55      -4.6095      2.00000
     56      -4.5871      2.00000
     57      -4.5378      2.00000
     58      -4.4967      2.00000
     59      -4.3837      2.00000
     60      -4.0640      2.00000
     61      -3.8971      2.00000
     62      -3.8080      2.00000
     63      -3.7335      2.00000
     64      -3.5172      2.00000
     65      -3.2002      2.00000
     66      -2.7545      2.00000
     67      -2.6233      2.00000
     68      -2.3747      2.00000
     69      -2.3263      2.00000
     70      -2.2823      2.00000
     71      -2.1665      2.00000
     72      -2.1537      2.00000
     73      -2.0970      2.00000
     74      -2.0333      2.00000
     75      -1.9741      2.00000
     76      -1.9719      2.00000
     77      -1.9228      2.00000
     78      -1.8457      2.00000
     79      -1.7297      2.00000
     80      -1.7155      2.00000
     81      -1.6634      2.00000
     82      -1.6430      2.00000
     83      -1.6304      2.00000
     84      -1.6055      2.00000
     85      -1.5868      2.00000
     86      -1.5221      2.00000
     87      -1.3831      2.00000
     88      -1.3437      2.00000
     89      -1.3302      2.00000
     90      -1.3117      2.00000
     91      -1.2082      2.00000
     92      -1.1623      2.00000
     93      -1.1195      2.00000
     94      -1.0866      2.00000
     95      -0.9831      2.00000
     96      -0.9028      2.00000
     97      -0.8774      2.00000
     98      -0.7892      2.00000
     99      -0.7141      2.00000
    100      -0.6795      2.00000
    101      -0.6635      2.00000
    102      -0.6570      2.00000
    103      -0.5520      2.00000
    104      -0.4922      2.00000
    105      -0.4404      2.00000
    106      -0.4369      2.00000
    107      -0.3974      2.00000
    108      -0.3757      2.00000
    109      -0.3148      2.00000
    110      -0.2843      2.00000
    111      -0.2576      2.00000
    112      -0.2192      2.00000
    113      -0.2096      2.00000
    114      -0.1125      2.00000
    115      -0.0840      2.00000
    116      -0.0127      2.00000
    117       0.1581      2.00000
    118       0.1856      2.00000
    119       0.2179      2.00000
    120       0.2259      2.00000
    121       0.2534      2.00000
    122       0.3272      2.00000
    123       0.3464      2.00000
    124       0.4214      2.00000
    125       0.5448      2.00000
    126       0.6175      2.00000
    127       0.7347      2.00000
    128       0.7710      2.00000
    129       0.8064      2.00000
    130       0.8298      2.00000
    131       0.8537      2.00000
    132       0.8719      2.00000
    133       0.9080      2.00000
    134       0.9236      2.00000
    135       0.9688      2.00000
    136       1.0296      2.00000
    137       1.0800      2.00000
    138       1.1348      2.00000
    139       1.2027      2.00000
    140       1.2363      2.00000
    141       1.2580      2.00000
    142       1.3124      2.00000
    143       1.4344      2.00000
    144       1.5571      2.00000
    145       1.6413      0.00000
    146       2.0643      0.00000
    147       2.1424      0.00000
    148       2.5072      0.00000
    149       2.5654      0.00000
    150       2.7591      0.00000
    151       2.9055      0.00000
    152       3.1839      0.00000
    153       3.2479      0.00000
    154       3.2994      0.00000
    155       3.4949      0.00000
    156       3.5393      0.00000
    157       3.6432      0.00000
    158       3.6810      0.00000
    159       3.6969      0.00000
    160       3.7583      0.00000
    161       3.7769      0.00000
    162       3.8355      0.00000
    163       3.8915      0.00000
    164       3.9332      0.00000
    165       3.9593      0.00000
    166       3.9641      0.00000
    167       4.0139      0.00000
    168       4.0245      0.00000
    169       4.1320      0.00000
    170       4.1594      0.00000
    171       4.1879      0.00000
    172       4.2397      0.00000
    173       4.2761      0.00000
    174       4.2938      0.00000
    175       4.3313      0.00000
    176       4.3976      0.00000
    177       4.4641      0.00000
    178       4.5528      0.00000
    179       4.5683      0.00000
    180       4.6059      0.00000
    181       4.6404      0.00000
    182       4.7318      0.00000

 k-point   3 :       0.4000    0.0000    0.0000
  band No.  band energies     occupation 
      1      -9.7171      2.00000
      2      -9.4821      2.00000
      3      -9.4466      2.00000
      4      -9.2175      2.00000
      5      -9.2108      2.00000
      6      -8.9382      2.00000
      7      -8.8929      2.00000
      8      -8.5957      2.00000
      9      -8.5168      2.00000
     10      -8.1946      2.00000
     11      -8.1059      2.00000
     12      -7.7774      2.00000
     13      -7.6785      2.00000
     14      -7.6608      2.00000
     15      -7.5213      2.00000
     16      -7.5058      2.00000
     17      -7.4549      2.00000
     18      -7.3341      2.00000
     19      -7.3067      2.00000
     20      -7.2667      2.00000
     21      -7.1270      2.00000
     22      -7.0811      2.00000
     23      -7.0734      2.00000
     24      -6.9641      2.00000
     25      -6.8640      2.00000
     26      -6.8096      2.00000
     27      -6.7802      2.00000
     28      -6.7580      2.00000
     29      -6.6894      2.00000
     30      -6.6569      2.00000
     31      -6.5201      2.00000
     32      -6.4380      2.00000
     33      -6.2884      2.00000
     34      -6.2427      2.00000
     35      -6.1685      2.00000
     36      -6.1000      2.00000
     37      -6.0760      2.00000
     38      -5.7692      2.00000
     39      -5.5423      2.00000
     40      -5.4238      2.00000
     41      -5.3282      2.00000
     42      -5.2065      2.00000
     43      -5.1644      2.00000
     44      -5.0551      2.00000
     45      -5.0283      2.00000
     46      -4.9691      2.00000
     47      -4.9652      2.00000
     48      -4.9233      2.00000
     49      -4.9042      2.00000
     50      -4.8443      2.00000
     51      -4.8144      2.00000
     52      -4.7832      2.00000
     53      -4.7148      2.00000
     54      -4.7010      2.00000
[...]
  --------------------------------------------------------------------------------------
  Alpha Z     86.37     86.37     86.37
  Ewald    66455.73  66462.36 -71824.84     -4.94      3.66      2.69
  Hartree  68222.43  68224.32 -67904.82     -0.52      0.99      0.79
  E(xc)     -972.03   -971.64   -974.58      0.22     -0.16     -0.02
  Local  -138088.39-138096.21 136299.24      5.41     -5.26     -3.56
  n-local   2821.68   2820.39   2818.63     -1.03      0.93      0.12
  augment   -515.15   -514.59   -518.24      0.07     -0.21     -0.01
  Kinetic   1978.74   1975.86   2015.25      1.32      0.30     -0.05
  -------------------------------------------------------------------------------------
  Total      -10.63    -13.14     -2.99      0.53      0.25     -0.04
  in kB       -6.56     -8.11     -1.84      0.33      0.16     -0.02
  external pressure =       -5.50 kB  Pullay stress =        0.00 kB


 VOLUME and BASIS-vectors are now :
 -----------------------------------------------------------------------------
  energy-cutoff  :      245.34
  volume of cell :     2595.87
      direct lattice vectors                 reciprocal lattice vectors
     9.660867586 -3.346587193  0.000000000     0.103510372  0.000000000  0.000000000
     0.000000000  6.693245402  0.000000000     0.051754637  0.149404353  0.000000000
     0.000000000  0.000000000 40.144800000     0.000000000  0.000000000  0.024909826

  length of vectors
    10.224089610  6.693245402 40.144800000     0.103510372  0.158114526  0.024909826


 FORCES acting on ions
    electron-ion (+dipol)            ewald-force                    non-local-force                 convergence-correction
 -----------------------------------------------------------------------------------------------
   0.311E+00 0.344E+01 -.586E+03   -.364E+00 -.368E+01 0.587E+03   0.593E-01 0.256E+00 -.877E+00   -.322E-02 -.558E-02 0.283E-01
   0.733E+01 -.371E+01 -.590E+03   -.770E+01 0.397E+01 0.591E+03   0.359E+00 -.267E+00 -.103E+01   0.898E-02 -.391E-03 0.251E-01
   0.825E+00 -.365E+01 -.590E+03   -.102E+01 0.400E+01 0.592E+03   0.201E+00 -.350E+00 -.202E+01   -.702E-02 0.232E-02 0.347E-01
   -.218E+01 0.769E+00 -.590E+03   0.262E+01 -.753E+00 0.592E+03   -.448E+00 -.129E-01 -.201E+01   0.125E-01 0.113E-02 0.342E-01
   -.747E+01 0.330E+01 -.590E+03   0.783E+01 -.356E+01 0.591E+03   -.360E+00 0.264E+00 -.108E+01   -.713E-02 -.182E-02 0.256E-01
   0.607E+00 -.639E+00 -.588E+03   -.772E+00 0.781E+00 0.590E+03   0.162E+00 -.145E+00 -.154E+01   -.435E-02 0.402E-02 0.322E-01
   0.190E+01 -.114E+01 0.590E+03   -.230E+01 0.115E+01 -.592E+03   0.409E+00 -.164E-01 0.203E+01   -.161E-01 0.703E-02 0.140E+00
   -.690E+00 0.523E+00 0.588E+03   0.847E+00 -.634E+00 -.590E+03   -.159E+00 0.120E+00 0.143E+01   0.118E-02 -.176E-01 0.157E+00
   0.772E+01 -.290E+01 0.590E+03   -.812E+01 0.316E+01 -.591E+03   0.405E+00 -.257E+00 0.105E+01   -.107E-01 -.132E-02 0.148E+00
   -.426E+00 0.300E+01 0.590E+03   0.629E+00 -.329E+01 -.592E+03   -.203E+00 0.304E+00 0.206E+01   0.387E-02 -.650E-02 0.142E+00
   -.743E+01 0.326E+01 0.590E+03   0.781E+01 -.354E+01 -.591E+03   -.386E+00 0.273E+00 0.103E+01   0.956E-02 0.873E-03 0.146E+00
   -.569E+00 -.236E+01 0.586E+03   0.600E+00 0.251E+01 -.587E+03   -.453E-01 -.169E+00 0.966E+00   0.125E-01 0.183E-01 0.156E+00
   -.252E+00 0.555E+00 -.511E+03   0.113E-01 -.460E+00 0.510E+03   0.218E+00 -.952E-01 0.107E+01   0.135E-01 -.850E-03 -.165E+00
   -.132E+01 -.111E+01 -.516E+03   0.108E+01 0.994E+00 0.516E+03   0.237E+00 0.109E+00 0.187E+00   0.137E-02 0.254E-03 -.167E+00
   0.132E+00 0.222E+01 -.516E+03   -.153E+00 -.192E+01 0.516E+03   0.492E-02 -.301E+00 0.205E+00   0.143E-01 0.175E-02 -.166E+00
   0.983E+00 0.198E+00 -.509E+03   -.540E+00 -.369E+00 0.509E+03   -.435E+00 0.167E+00 0.812E+00   -.458E-02 0.201E-02 -.170E+00
   0.101E+01 -.105E+01 -.518E+03   -.857E+00 0.104E+01 0.517E+03   -.158E+00 0.621E-02 0.151E+01   0.528E-03 0.986E-03 -.157E+00
   -.937E+00 0.136E+01 -.459E+03   0.380E+00 -.135E+01 0.459E+03   0.552E+00 -.600E-02 0.190E+00   0.343E-02 -.877E-03 -.195E+00
   0.792E+00 0.122E+01 -.458E+03   -.332E+00 -.104E+01 0.458E+03   -.443E+00 -.174E+00 0.181E+00   -.154E-01 -.181E-02 -.197E+00
   0.362E+00 -.717E+00 -.458E+03   -.413E+00 0.626E+00 0.458E+03   0.625E-01 0.940E-01 0.405E+00   -.813E-02 0.126E-02 -.193E+00
   0.104E+01 -.126E+01 -.458E+03   -.890E+00 0.109E+01 0.458E+03   -.153E+00 0.175E+00 0.309E+00   0.379E-02 -.169E-02 -.202E+00
   -.122E+01 -.572E+00 -.455E+03   0.112E+01 0.508E+00 0.455E+03   0.107E+00 0.680E-01 0.273E+00   -.942E-02 -.182E-02 -.205E+00
   -.468E+00 -.305E-01 -.314E+03   0.378E+00 0.854E-01 0.315E+03   0.741E-01 -.584E-01 -.312E+00   0.891E-02 0.335E-03 -.280E+00
   -.228E+00 -.638E-01 -.312E+03   0.273E+00 0.849E-01 0.313E+03   -.529E-01 -.251E-01 -.488E+00   0.580E-02 0.778E-03 -.281E+00
   0.156E+00 0.101E+00 -.317E+03   -.233E-01 -.137E+00 0.317E+03   -.147E+00 0.326E-01 0.399E-01   0.742E-02 0.778E-03 -.277E+00
   0.512E+00 -.302E+00 -.316E+03   -.495E+00 0.236E+00 0.316E+03   -.220E-01 0.629E-01 0.220E-01   0.305E-02 0.630E-03 -.275E+00
   0.115E+00 -.115E+00 -.315E+03   -.233E+00 0.139E-01 0.315E+03   0.119E+00 0.943E-01 -.973E-01   0.878E-03 0.978E-03 -.278E+00
   0.366E+00 -.295E+00 -.266E+03   -.346E+00 0.188E+00 0.266E+03   -.800E-02 0.110E+00 -.127E+00   -.779E-02 -.895E-03 -.251E+00
   -.129E+01 -.825E-01 -.266E+03   0.108E+01 0.669E-01 0.266E+03   0.209E+00 0.215E-01 -.293E-01   -.311E-02 -.217E-02 -.256E+00
   0.770E+00 0.263E+00 -.266E+03   -.650E+00 -.160E+00 0.266E+03   -.105E+00 -.972E-01 -.422E-01   -.725E-02 -.993E-03 -.253E+00
   0.404E+00 0.473E+00 -.266E+03   -.247E+00 -.395E+00 0.266E+03   -.145E+00 -.751E-01 -.771E-03   -.459E-02 -.225E-03 -.256E+00
   -.302E+00 0.135E+00 -.266E+03   0.243E+00 -.770E-01 0.266E+03   0.638E-01 -.547E-01 -.125E+00   -.413E-02 0.711E-03 -.252E+00
   0.127E+00 -.196E-01 -.121E+03   -.128E+00 0.461E-01 0.121E+03   -.311E-02 -.110E-01 0.627E-01   0.259E-03 -.200E-03 -.232E+00
   0.146E+00 -.136E+00 -.121E+03   -.174E+00 0.130E+00 0.121E+03   0.392E-02 -.404E-02 -.549E-01   0.983E-03 -.127E-03 -.233E+00
   -.587E-01 -.101E+00 -.121E+03   0.781E-01 0.897E-01 0.122E+03   -.266E-02 0.788E-02 0.108E+00   0.111E-02 -.355E-04 -.231E+00
   -.409E-01 -.704E-02 -.121E+03   0.115E+00 0.115E-01 0.121E+03   -.182E-01 0.219E-02 -.229E-01   0.170E-02 -.299E-03 -.231E+00
   -.172E+00 0.237E-01 -.121E+03   0.129E+00 -.375E-01 0.121E+03   0.175E-01 -.367E-02 -.903E-01   0.159E-02 0.115E-03 -.233E+00
   -.122E-02 -.288E-02 -.722E+02   -.871E-02 0.510E-01 0.724E+02   -.347E-03 -.425E-01 -.387E-01   -.854E-03 -.601E-04 -.220E+00
   0.124E+00 -.433E-01 -.724E+02   -.986E-01 0.171E-01 0.726E+02   -.183E-01 0.975E-02 -.248E-01   -.138E-02 0.587E-03 -.220E+00
   -.478E-01 -.781E-01 -.728E+02   0.278E-01 0.472E-01 0.729E+02   0.249E-01 0.228E-01 0.460E-01   -.136E-02 -.170E-03 -.219E+00
   -.140E+00 0.226E-01 -.724E+02   0.132E+00 0.229E-02 0.726E+02   0.372E-02 -.168E-01 0.104E-02   -.133E-02 0.786E-03 -.220E+00
   0.116E+00 -.193E-01 -.724E+02   -.107E+00 0.177E-01 0.725E+02   -.201E-01 -.107E-01 0.126E-01   -.112E-02 0.187E-03 -.222E+00
   -.143E+00 0.612E-01 0.723E+02   0.134E+00 -.422E-01 -.721E+02   0.928E-02 -.175E-01 0.957E-02   0.301E-02 0.464E-04 -.200E+00
   0.143E+00 -.812E-01 0.727E+02   -.128E+00 0.564E-01 -.725E+02   -.134E-01 0.276E-01 0.466E-01   -.214E-02 -.317E-03 -.198E+00
   0.878E-01 -.214E+00 0.726E+02   -.776E-01 0.156E+00 -.724E+02   -.951E-02 0.602E-01 0.329E-01   0.381E-03 0.108E-02 -.198E+00
   0.144E+00 0.259E+00 0.724E+02   -.106E+00 -.206E+00 -.722E+02   -.384E-01 -.527E-01 0.400E-01   -.109E-02 0.358E-03 -.200E+00
   -.183E+00 0.231E+00 0.726E+02   0.168E+00 -.172E+00 -.724E+02   0.148E-01 -.578E-01 0.499E-01   0.786E-03 -.372E-03 -.202E+00
   -.573E-01 0.121E+00 0.121E+03   0.972E-01 -.108E+00 -.121E+03   -.438E-01 -.133E-01 0.102E+00   0.257E-02 -.248E-03 -.200E+00
   -.278E-01 0.877E-01 0.122E+03   -.841E-02 -.810E-01 -.122E+03   0.367E-01 -.735E-02 0.875E-02   -.197E-02 0.157E-03 -.200E+00
   -.147E+00 -.162E+00 0.122E+03   0.138E+00 0.106E+00 -.122E+03   0.633E-02 0.531E-01 -.444E-02   0.130E-02 0.474E-03 -.202E+00
   0.255E+00 -.606E-02 0.121E+03   -.198E+00 0.135E-01 -.121E+03   -.581E-01 -.896E-02 0.166E+00   0.734E-03 0.560E-03 -.196E+00
   -.643E-01 -.444E-01 0.121E+03   -.287E-01 0.309E-01 -.121E+03   0.936E-01 0.130E-01 0.125E+00   -.218E-02 0.322E-03 -.199E+00
   -.532E+00 -.286E+00 0.265E+03   0.362E+00 0.244E+00 -.265E+03   0.166E+00 0.445E-01 0.444E-01   0.861E-02 0.433E-03 -.137E+00
   0.116E+01 0.707E-01 0.266E+03   -.948E+00 -.540E-01 -.266E+03   -.206E+00 -.180E-01 0.558E-01   -.268E-02 0.396E-02 -.134E+00
   -.853E+00 -.286E+00 0.266E+03   0.729E+00 0.186E+00 -.266E+03   0.116E+00 0.104E+00 0.105E+00   0.116E-01 0.525E-03 -.140E+00
   -.273E+00 0.525E+00 0.266E+03   0.266E+00 -.360E+00 -.266E+03   0.408E-02 -.164E+00 0.182E+00   0.508E-02 0.206E-02 -.142E+00
   0.474E+00 -.251E+00 0.267E+03   -.386E+00 0.177E+00 -.267E+03   -.806E-01 0.778E-01 0.155E+00   -.433E-02 -.110E-02 -.140E+00
   -.370E+00 0.279E+00 0.317E+03   0.345E+00 -.244E+00 -.317E+03   0.224E-01 -.367E-01 -.493E-02   -.184E-02 -.216E-02 -.107E+00
   0.917E-01 0.924E-02 0.312E+03   -.150E+00 -.436E-01 -.312E+03   0.568E-01 0.356E-01 0.531E+00   -.229E-03 -.215E-02 -.977E-01
   -.180E-01 -.140E+00 0.316E+03   -.108E+00 0.167E+00 -.316E+03   0.136E+00 -.288E-01 0.753E-01   -.113E-01 -.191E-03 -.105E+00
   0.439E+00 0.932E-02 0.314E+03   -.338E+00 -.761E-01 -.314E+03   -.951E-01 0.676E-01 0.418E+00   -.112E-01 -.445E-03 -.974E-01
   -.182E+00 -.368E-02 0.315E+03   0.275E+00 0.873E-01 -.315E+03   -.104E+00 -.850E-01 0.158E+00   0.674E-02 -.523E-03 -.105E+00
   -.279E+00 0.101E+01 0.459E+03   0.362E+00 -.750E+00 -.459E+03   -.884E-01 -.252E+00 -.403E+00   0.728E-02 -.691E-02 0.538E-01
   0.102E+01 -.151E+01 0.459E+03   -.432E+00 0.143E+01 -.459E+03   -.571E+00 0.742E-01 -.159E+00   -.123E-01 0.585E-02 0.438E-01
   -.790E+00 -.140E+01 0.458E+03   0.319E+00 0.120E+01 -.458E+03   0.449E+00 0.201E+00 -.115E+00   0.234E-01 0.708E-02 0.456E-01
   0.123E+01 0.727E+00 0.455E+03   -.110E+01 -.671E+00 -.455E+03   -.140E+00 -.553E-01 -.197E+00   0.132E-01 -.233E-03 0.442E-01
   -.129E+01 0.137E+01 0.458E+03   0.101E+01 -.118E+01 -.458E+03   0.283E+00 -.180E+00 -.247E+00   -.441E-03 -.123E-02 0.429E-01
   -.234E+00 -.203E+01 0.516E+03   0.228E+00 0.178E+01 -.516E+03   0.306E-01 0.249E+00 -.918E-01   -.236E-01 -.584E-03 0.110E+00
   -.100E+01 0.402E+00 0.518E+03   0.855E+00 -.561E+00 -.517E+03   0.145E+00 0.162E+00 -.163E+01   -.205E-02 -.409E-02 0.116E+00
   -.129E+01 0.124E+00 0.509E+03   0.762E+00 0.739E-01 -.508E+03   0.519E+00 -.194E+00 -.740E+00   0.840E-02 -.310E-02 0.118E+00
   0.133E+01 0.971E+00 0.516E+03   -.112E+01 -.853E+00 -.516E+03   -.219E+00 -.113E+00 -.102E+00   0.507E-02 -.327E-02 0.113E+00
   0.722E+00 -.269E+00 0.510E+03   -.344E+00 0.194E+00 -.510E+03   -.363E+00 0.710E-01 -.807E+00   -.186E-01 0.457E-02 0.113E+00
 -----------------------------------------------------------------------------------------------
   -.132E-01 0.394E-01 0.627E+01   -.107E-13 0.351E-13 0.284E-12   0.174E-01 -.378E-01 0.179E+01   0.549E-03 0.920E-03 -.806E+01
 
 
 POSITION                                       TOTAL-FORCE (eV/Angst)
 -----------------------------------------------------------------------------------
      7.54150      1.96014      2.77412         0.003583      0.008076     -0.004899
      5.03654      3.77843      2.71688         0.004081     -0.002033     -0.008680
      1.72559      3.25531      2.82816         0.000292      0.000988     -0.013030
      3.99332      0.35640      2.82345         0.003135      0.003899     -0.015150
      0.68940     -0.01272      2.70574        -0.004619      0.003154     -0.004938
      7.89741     -1.14512      2.82635        -0.007643      0.001815     -0.003827
      1.76840      3.05412     20.75045         0.000005      0.000138     -0.009547
      7.56808      1.25682     20.75522        -0.001270     -0.008109     -0.007083
      5.07985      3.38375     20.87422        -0.002464     -0.007129      0.002981
      4.06676      0.09832     20.74373         0.004085      0.002207     -0.008635
      0.73425      6.36255     20.86290         0.004135     -0.002580     -0.001057
      7.86036     -1.83497     20.79210        -0.001023     -0.003741     -0.002087
      5.77817      3.34108      0.01851        -0.009163     -0.001090     -0.010979
      1.92754      3.32248      0.04946        -0.001695     -0.002693      0.000848
      3.85374      0.00231      0.05760        -0.002174      0.003921     -0.000839
      0.03350      6.66957     40.13328         0.004285     -0.002599     -0.006728
      7.73737     -0.00860      0.09525        -0.002888     -0.002717     -0.003230
      5.79387      1.09343     39.39780        -0.001084     -0.000185      0.010311
      0.00555      4.43020     39.37348         0.002257      0.002834      0.014170
      7.73275     -2.24095     39.39864         0.003202      0.004473      0.010198
      3.84408      4.46531     39.36845         0.004945      0.000965      0.007362
      1.94800      1.11438     39.33205         0.001647      0.001981      0.009754
      3.85600      4.46259     37.00012        -0.006735     -0.003162     -0.013204
      1.94052      1.11253     36.97628        -0.002269     -0.003317     -0.013598
      5.80611      1.10571     37.01836        -0.006647     -0.002619     -0.017303
      7.72903     -2.24185     37.01747        -0.001592     -0.002069     -0.018091
      9.65254      1.09921     37.00311         0.001820     -0.005822     -0.013933
      7.72775      2.22336     36.20609         0.004154      0.002527      0.015703
      3.87708      2.22889     36.20357        -0.001761      0.003739      0.010687
      9.65701     -1.12712     36.20085         0.007235      0.005647      0.010578
      1.92235      5.56948     36.19995         0.007178      0.003285      0.011162
      5.79714     -1.12252     36.20939        -0.000094      0.004123      0.012147
      7.72869      2.23105     33.83435        -0.003598      0.015296      0.087362
      0.00000      2.23108     33.83435        -0.023107     -0.010554      0.050939
      5.79652     -1.11558     33.83435         0.017792     -0.003622      0.104415
      3.86435      2.23105     33.83435         0.057991      0.006343      0.068912
      1.93217      5.57767     33.83435        -0.024367     -0.017439      0.043510
      1.93217      3.34659     33.04554        -0.011196      0.005438     -0.070465
      7.72869     -0.00004     33.04554         0.005944     -0.015968     -0.069174
      5.79652      3.34659     33.04554         0.003370     -0.008250     -0.054426
      3.86435     -0.00004     33.04554        -0.005639      0.008848     -0.052558
      0.00000      0.00000     33.04554        -0.012557     -0.012131     -0.063795
      5.80137      3.34315     30.68018         0.003580      0.001496      0.002518
      1.93306      3.34177     30.67459         0.000276      0.002568      0.003031
      3.86464     -0.00193     30.67624         0.001057      0.002860      0.002031
      9.65897      3.33929     30.67877        -0.000845      0.001102      0.004064
      7.73155     -0.00628     30.67624         0.000592      0.000415      0.001876
      5.80083      1.11257     29.88213        -0.001371     -0.000368     -0.004188
      9.66029      1.11069     29.87263        -0.001523     -0.000490     -0.003434
      7.73060     -2.23825     29.87464        -0.001189     -0.001824     -0.007021
      3.86992      4.45845     29.88482        -0.000831     -0.000949     -0.000099
      1.92581      1.10886     29.87976        -0.001687     -0.000129     -0.000632
      3.87768      4.46066     27.52089         0.004407      0.002592      0.008557
      1.92227      1.10868     27.51355         0.000720      0.002683      0.009784
      5.80244      1.11838     27.51582         0.002578      0.003855      0.007845
      7.73082     -2.23502     27.50418         0.002219      0.002871      0.006506
      0.00143      4.46176     27.50124         0.002292      0.003430      0.008279
      7.72906      2.22976     26.69079        -0.003632     -0.003953     -0.009740
      3.85802      2.22584     26.74243        -0.002331     -0.000932     -0.010732
      9.65440     -1.11489     26.70237        -0.001400     -0.001320     -0.012278
      1.94705      5.56835     26.72149        -0.004997      0.000334     -0.010668
      5.80549     -1.10770     26.71518        -0.003816     -0.001931     -0.011315
      7.72781      2.22604     24.30551         0.001637      0.000869      0.011679
      0.00833      2.23966     24.32593         0.000863      0.002958      0.011056
      5.79155     -1.09681     24.34489         0.000679      0.004638      0.013586
      3.84971      2.21953     24.38562        -0.003178      0.001055      0.010527
      1.95779      5.56201     24.35605         0.008496     -0.000301      0.009965
      1.94386      3.33538     23.51918         0.000279      0.005193     -0.002793
      7.72459     -0.01649     23.47441        -0.002816     -0.001107     -0.008631
      5.76141      3.35840     23.58408        -0.001041      0.001017     -0.006372
      3.87098      0.01216     23.52299        -0.003012      0.000714     -0.001095
      0.03023     -0.00643     23.56412        -0.003555      0.000786     -0.006086
 -----------------------------------------------------------------------------------
    total drift:                                0.004749      0.002442     -0.000372


--------------------------------------------------------------------------------------------------------



 mean value of Nose-termostat <S>:     1.000 mean value of <T> :     0.000
 mean temperature <T/S>/<1/S>  :     0.000

     LOOP+:  VPU time 1351.65: CPU time 1358.66
 INDMIN                                  72
 Position of INDMIN                  11.876
 left and right vacuum level          4.996         6.450
 Grid indexs of vacuum                   68            76
 Position of vacuum                  11.207        12.545

 ----------------------------------------------------------------------------- 
|                                                                             |
|           W    W    AA    RRRRR   N    N  II  N    N   GGGG   !!!           |
|           W    W   A  A   R    R  NN   N  II  NN   N  G    G  !!!           |
|           W    W  A    A  R    R  N N  N  II  N N  N  G       !!!           |
|           W WW W  AAAAAA  RRRRR   N  N N  II  N  N N  G  GGG   !            |
|           WW  WW  A    A  R   R   N   NN  II  N   NN  G    G                |
|           W    W  A    A  R    R  N    N  II  N    N   GGGG   !!!           |
|                                                                             |
|      The partial DOS and the PROCAR file are not evaluated for NPAR/=1      |
|      please rerun with NPAR=1                                               |
|                                                                             |
 ----------------------------------------------------------------------------- 

  
  
 General timing and accounting informations for this job:
 ========================================================
  
                  Total CPU time used (sec):     1377.734
                            User time (sec):     1335.519
                          System time (sec):       42.215
                         Elapsed time (sec):     1386.013
  
                   Maximum memory used (kb):           0.
                   Average memory used (kb):           0.
  
                          Minor page faults:     18530169
                          Major page faults:            0
                 Voluntary context switches:       180794
